ITEM: TIMESTEP
5000
ITEM: NUMBER OF ATOMS
506
ITEM: BOX BOUNDS pp pp pp
-1.0000000000000000e+02 1.0000000000000000e+02
-1.0000000000000000e+02 1.0000000000000000e+02
-1.0000000000000000e+02 1.0000000000000000e+02
ITEM: ATOMS id element xs ys zs
266 F 0.651641 0.518128 0.392268
271 F 0.647513 0.531234 0.38613
298 F 0.661195 0.532426 0.389034
441 C 0.649633 0.534894 0.391538
447 C 0.656892 0.537572 0.39061
279 F 0.644974 0.539813 0.392563
482 O 0.65504 0.540674 0.377042
497 S 0.657514 0.54369 0.383956
490 O 0.665467 0.546225 0.382764
503 H 0.665146 0.550088 0.378446
474 O 0.653377 0.550275 0.385405
249 F 0.645633 0.512949 0.399606
12 F 0.619947 0.533255 0.422089
214 F 0.625535 0.534366 0.410261
301 C 0.626156 0.535966 0.422113
410 C 0.629791 0.533616 0.415662
6 F 0.624864 0.542702 0.421602
176 F 0.632777 0.542765 0.401142
206 F 0.630214 0.526722 0.416271
242 F 0.639443 0.52504 0.395759
258 F 0.654866 0.518353 0.402551
426 C 0.64524 0.525371 0.399465
434 C 0.649298 0.518627 0.398639
463 O 0.649598 0.530801 0.397656
289 F 0.659098 0.540659 0.396295
200 F 0.64152 0.53463 0.418488
226 F 0.640467 0.521293 0.409967
234 F 0.649263 0.528132 0.410494
402 C 0.636886 0.536012 0.413384
418 C 0.643465 0.526647 0.407022
457 O 0.639089 0.532558 0.407399
394 C 0.637739 0.543762 0.41187
184 F 0.644354 0.544866 0.410255
80 F 0.604771 0.571045 0.412011
104 F 0.62511 0.568951 0.402584
154 F 0.631191 0.555762 0.39816
67 F 0.608692 0.565423 0.403737
88 F 0.615317 0.565214 0.417118
106 F 0.620374 0.559627 0.405044
116 F 0.631119 0.568722 0.415862
122 F 0.627223 0.55858 0.416857
169 F 0.626593 0.547445 0.408724
351 C 0.622871 0.565368 0.407976
362 C 0.629225 0.563228 0.41222
364 C 0.635638 0.560499 0.408351
371 C 0.635234 0.554229 0.403518
380 C 0.633114 0.547151 0.40641
97 F 0.619473 0.574978 0.414537
333 C 0.610281 0.570897 0.407695
339 C 0.61693 0.569149 0.41164
139 F 0.638313 0.565838 0.404737
147 F 0.641483 0.553331 0.400593
130 F 0.640824 0.559648 0.412975
193 F 0.636882 0.547304 0.417757
17 F 0.602315 0.598659 0.394805
16 F 0.59838 0.588436 0.395043
300 C 0.601585 0.593213 0.398961
3 F 0.597209 0.595132 0.403807
49 F 0.601474 0.583354 0.408889
32 F 0.613084 0.590449 0.396993
52 F 0.616369 0.578368 0.40027
60 F 0.606105 0.576555 0.397608
308 C 0.608338 0.590886 0.401939
328 C 0.610227 0.57751 0.403141
21 F 0.610723 0.596179 0.405747
36 F 0.611612 0.585323 0.412071
320 C 0.607838 0.584318 0.406444
485 O 0.416047 0.495557 0.44936
505 H 0.420017 0.498741 0.446575
26 F 0.632087 0.52792 0.429288
59 F 0.61801 0.526427 0.433189
312 C 0.629549 0.534472 0.429235
48 F 0.621982 0.541749 0.434955
39 F 0.629456 0.537548 0.441025
56 F 0.62455 0.52495 0.44129
66 F 0.609033 0.527648 0.442285
81 F 0.612115 0.537856 0.44214
96 F 0.623002 0.532841 0.452267
105 F 0.616635 0.5196 0.451431
317 C 0.625235 0.535751 0.435828
330 C 0.620608 0.529962 0.438587
331 C 0.614684 0.531604 0.443677
346 C 0.616297 0.531594 0.4515
20 F 0.635207 0.538401 0.42957
180 F 0.421446 0.481617 0.480662
135 F 0.436612 0.479598 0.482035
263 F 0.587939 0.483886 0.481292
274 F 0.599603 0.48463 0.474154
481 O 0.610873 0.476325 0.470237
489 O 0.620998 0.47678 0.478405
506 H 0.624116 0.474956 0.473864
498 S 0.61495 0.481372 0.474715
253 F 0.39207 0.495454 0.479599
229 F 0.400036 0.485316 0.483582
293 F 0.404448 0.495285 0.46017
446 C 0.410785 0.494781 0.462943
477 O 0.415123 0.506379 0.456601
493 S 0.416585 0.498653 0.457154
237 F 0.408731 0.501288 0.4836
261 F 0.396591 0.504794 0.475875
270 F 0.408963 0.504748 0.469755
277 F 0.417106 0.498116 0.472796
285 F 0.41216 0.488088 0.463444
422 C 0.404201 0.49676 0.481097
430 C 0.397101 0.500053 0.48085
437 C 0.410712 0.498208 0.47009
462 O 0.406179 0.494503 0.474487
469 O 0.424029 0.4979 0.459466
143 F 0.442563 0.487965 0.478852
152 F 0.429577 0.491332 0.478163
367 C 0.438598 0.485925 0.484147
376 C 0.432314 0.490534 0.484438
230 F 0.49938 0.508658 0.481014
414 C 0.498536 0.51429 0.484997
239 F 0.59152 0.495655 0.474713
250 F 0.581164 0.492131 0.483971
415 C 0.592166 0.502335 0.484653
425 C 0.59275 0.49505 0.481514
433 C 0.587659 0.489951 0.484532
458 O 0.596665 0.506688 0.481197
466 O 0.599337 0.492445 0.482772
442 C 0.603342 0.489089 0.477712
177 F 0.59884 0.510015 0.468922
399 C 0.598477 0.513555 0.482735
381 C 0.604047 0.514405 0.470306
393 C 0.60491 0.514539 0.478207
225 F 0.585742 0.504649 0.48343
282 F 0.60542 0.494031 0.473329
450 C 0.609482 0.485424 0.480879
471 O 0.618558 0.486557 0.469829
140 F 0.621311 0.513325 0.461966
155 F 0.607583 0.511617 0.459096
148 F 0.611682 0.505713 0.467016
185 F 0.609378 0.509673 0.479863
372 C 0.609977 0.512289 0.465619
290 F 0.613076 0.489712 0.484698
221 F 0.492607 0.517268 0.483152
246 F 0.499084 0.527187 0.476576
254 F 0.503427 0.518319 0.471941
262 F 0.509993 0.526366 0.475536
429 C 0.504314 0.522807 0.477096
421 C 0.504557 0.519384 0.484092
294 F 0.524167 0.516049 0.480378
164 F 0.60152 0.520461 0.468369
213 F 0.589079 0.517163 0.476384
218 F 0.595487 0.524999 0.479735
407 C 0.592707 0.518983 0.481909
89 F 0.613423 0.536808 0.455107
112 F 0.607365 0.524238 0.455119
354 C 0.614267 0.524832 0.455123
117 F 0.622832 0.526454 0.463608
356 C 0.616485 0.524022 0.462648
123 F 0.612695 0.528404 0.466469
131 F 0.618927 0.516881 0.472031
192 F 0.608109 0.520464 0.480061
365 C 0.616526 0.516719 0.465537
475 O 0.284472 0.422975 0.512905
203 F 0.359872 0.423523 0.505661
220 F 0.36394 0.410853 0.505539
228 F 0.369898 0.408763 0.514607
236 F 0.376304 0.409524 0.49781
244 F 0.366367 0.399055 0.499208
252 F 0.371578 0.395805 0.50852
260 F 0.376863 0.395613 0.499015
268 F 0.388487 0.404138 0.498761
412 C 0.370308 0.411065 0.508167
420 C 0.375168 0.406555 0.503953
428 C 0.372352 0.39937 0.502645
436 C 0.387973 0.406226 0.505262
452 O 0.372529 0.417796 0.507972
460 O 0.381237 0.405384 0.507812
276 F 0.388924 0.413004 0.50544
292 F 0.39136 0.395539 0.510021
444 C 0.392865 0.402334 0.509992
396 C 0.370143 0.423527 0.511961
499 H 0.411703 0.40105 0.511721
468 O 0.403595 0.410791 0.507941
476 O 0.40279 0.400141 0.500392
484 O 0.406538 0.398817 0.513139
492 S 0.401595 0.403084 0.507696
259 F 0.272661 0.447831 0.510304
267 F 0.281814 0.436777 0.511324
235 F 0.287345 0.449582 0.509938
427 C 0.276231 0.453073 0.513015
15 F 0.357958 0.437058 0.505567
63 F 0.345965 0.439217 0.509049
71 F 0.337477 0.448273 0.51139
302 C 0.36145 0.434207 0.510705
404 C 0.364885 0.427652 0.507772
208 F 0.367669 0.429315 0.501768
158 F 0.392281 0.434363 0.505505
167 F 0.378381 0.436455 0.506473
171 F 0.381542 0.426654 0.503295
377 C 0.38884 0.432485 0.511028
383 C 0.381367 0.430649 0.508954
150 F 0.392042 0.42654 0.512525
109 F 0.389124 0.446609 0.504491
348 C 0.390978 0.449472 0.510269
7 F 0.36608 0.439131 0.511862
388 C 0.376629 0.427307 0.514373
99 F 0.39779 0.449087 0.510113
243 F 0.276478 0.457857 0.508047
72 F 0.387841 0.458138 0.498286
79 F 0.386915 0.467154 0.504099
83 F 0.381883 0.457262 0.510961
343 C 0.388735 0.45712 0.510146
338 C 0.390581 0.461263 0.503793
196 F 0.411332 0.476429 0.488041
397 C 0.414116 0.482376 0.490109
389 C 0.42164 0.482696 0.487577
9 F 0.401494 0.479509 0.497637
19 F 0.412899 0.472515 0.509342
33 F 0.411541 0.46823 0.499424
35 F 0.403746 0.464092 0.512234
45 F 0.39759 0.472676 0.509691
55 F 0.401847 0.457783 0.50077
62 F 0.39785 0.466501 0.495882
311 C 0.408225 0.471921 0.504188
318 C 0.401817 0.468063 0.506973
329 C 0.397959 0.463298 0.502073
216 F 0.419103 0.480932 0.501217
303 C 0.407163 0.479228 0.501474
405 C 0.413346 0.482934 0.497977
2 F 0.405353 0.48313 0.506986
189 F 0.425147 0.477063 0.489703
115 F 0.447969 0.480022 0.488336
125 F 0.439625 0.481663 0.495204
357 C 0.443294 0.484884 0.490321
297 F 0.60721 0.480496 0.485155
413 C 0.404266 0.490357 0.485682
222 F 0.402288 0.492134 0.492009
245 F 0.395604 0.503398 0.486704
453 O 0.410981 0.487594 0.486002
172 F 0.421831 0.494452 0.489192
209 F 0.413379 0.489669 0.499439
100 F 0.44898 0.495566 0.488659
159 F 0.434453 0.497003 0.485794
384 C 0.426089 0.489048 0.489105
113 F 0.442425 0.494563 0.497403
168 F 0.42824 0.488974 0.495678
349 C 0.447056 0.491016 0.49355
69 F 0.45281 0.501131 0.501506
84 F 0.450732 0.485512 0.503506
344 C 0.453166 0.489441 0.498324
23 F 0.48245 0.493987 0.496601
31 F 0.476561 0.499898 0.489859
51 F 0.463005 0.496734 0.490477
314 C 0.477376 0.498847 0.496771
14 F 0.475508 0.509261 0.502174
41 F 0.470625 0.488749 0.498652
44 F 0.471152 0.496005 0.506696
65 F 0.463991 0.505136 0.497325
76 F 0.458292 0.494911 0.507746
93 F 0.457638 0.485041 0.495345
321 C 0.470772 0.495487 0.499858
327 C 0.463731 0.498173 0.497183
335 C 0.457159 0.495722 0.501011
305 C 0.48064 0.505135 0.500302
5 F 0.483273 0.503123 0.506271
204 F 0.483058 0.512532 0.491273
197 F 0.492195 0.502051 0.490031
398 C 0.493275 0.507089 0.494867
406 C 0.486025 0.509675 0.496783
454 O 0.497696 0.512298 0.492049
137 F 0.506148 0.494312 0.510228
153 F 0.511547 0.506976 0.507702
165 F 0.494125 0.509146 0.511078
181 F 0.503677 0.501878 0.497891
188 F 0.494934 0.497858 0.502545
374 C 0.505817 0.506462 0.511583
386 C 0.499614 0.508317 0.507029
390 C 0.497684 0.5039 0.50072
173 F 0.50085 0.5148 0.504974
210 F 0.487375 0.515077 0.500629
370 C 0.505996 0.499302 0.515075
500 H 0.540714 0.513653 0.4924
286 F 0.52138 0.50699 0.486397
445 C 0.522473 0.5139 0.486713
470 O 0.527816 0.512153 0.499586
486 O 0.536301 0.511532 0.489292
231 F 0.593435 0.502216 0.491435
257 F 0.588934 0.488719 0.491106
201 F 0.600678 0.513731 0.489292
13 F 0.587023 0.5152 0.492082
238 F 0.503731 0.524174 0.489028
461 O 0.510749 0.515664 0.484797
278 F 0.514487 0.516662 0.495437
269 F 0.517373 0.524634 0.48844
438 C 0.516149 0.5179 0.488944
494 S 0.529412 0.515484 0.492311
478 O 0.530937 0.523252 0.493188
1 F 0.581403 0.521622 0.485691
22 F 0.588907 0.532634 0.488165
306 C 0.587902 0.520719 0.488014
307 C 0.58978 0.527153 0.492184
28 F 0.596557 0.527233 0.493605
40 F 0.586293 0.535226 0.50048
47 F 0.579196 0.527332 0.498124
50 F 0.594531 0.527801 0.50742
58 F 0.59101 0.518559 0.503838
74 F 0.578444 0.519905 0.509119
95 F 0.577015 0.533961 0.510568
319 C 0.585953 0.528427 0.49897
324 C 0.588737 0.52477 0.505466
332 C 0.5835 0.523909 0.511399
467 O 0.293486 0.424014 0.521507
483 O 0.282636 0.417318 0.52452
502 H 0.286518 0.413299 0.522951
195 F 0.366797 0.421175 0.517545
284 F 0.392104 0.404486 0.516507
179 F 0.380335 0.422561 0.51787
251 F 0.272032 0.455628 0.517898
491 S 0.285621 0.424234 0.520617
275 F 0.291447 0.437962 0.516672
291 F 0.27534 0.431834 0.52215
435 C 0.284546 0.438111 0.517429
443 C 0.282261 0.432487 0.522514
459 O 0.282441 0.44479 0.519515
419 C 0.283323 0.450908 0.515442
451 O 0.293474 0.453245 0.521756
283 F 0.283416 0.434099 0.52901
178 F 0.299705 0.444191 0.529881
98 F 0.32914 0.437141 0.519647
151 F 0.306889 0.435923 0.522693
160 F 0.314529 0.439639 0.516136
347 C 0.328574 0.443651 0.522099
378 C 0.311722 0.440828 0.522457
107 F 0.325572 0.447144 0.51694
170 F 0.304588 0.448201 0.516245
385 C 0.308042 0.447954 0.522237
119 F 0.32719 0.441196 0.533851
136 F 0.313919 0.43977 0.53417
142 F 0.31872 0.432607 0.527536
355 C 0.323731 0.443493 0.528332
369 C 0.316986 0.439311 0.528025
127 F 0.322314 0.450043 0.530052
186 F 0.306923 0.451188 0.533944
387 C 0.303221 0.449862 0.528242
166 F 0.31273 0.452812 0.521529
30 F 0.353506 0.427217 0.516774
43 F 0.356149 0.44506 0.518836
54 F 0.341474 0.434373 0.517395
313 C 0.356925 0.433276 0.517153
316 C 0.352257 0.439396 0.519386
325 C 0.345207 0.439999 0.515828
336 C 0.340891 0.446606 0.517148
342 C 0.335871 0.446658 0.523249
78 F 0.345122 0.452069 0.517573
25 F 0.361394 0.431928 0.522376
38 F 0.35114 0.438916 0.526212
90 F 0.339066 0.443822 0.528693
82 F 0.334962 0.453169 0.525545
361 C 0.388266 0.445194 0.516324
126 F 0.381445 0.44533 0.516482
133 F 0.388046 0.435097 0.522658
187 F 0.375067 0.431934 0.519234
368 C 0.390435 0.437669 0.516743
120 F 0.390025 0.448236 0.522313
144 F 0.39723 0.437409 0.517743
411 C 0.28709 0.456145 0.519786
227 F 0.283299 0.458052 0.525275
219 F 0.288442 0.461726 0.515984
207 F 0.303859 0.463032 0.519345
194 F 0.294206 0.456333 0.532791
202 F 0.296426 0.467738 0.526238
395 C 0.297887 0.455662 0.527084
403 C 0.301136 0.46272 0.525705
215 F 0.30601 0.464248 0.530248
91 F 0.390981 0.460304 0.515786
118 F 0.502389 0.490625 0.522586
129 F 0.494496 0.496363 0.51762
145 F 0.512266 0.498434 0.51796
358 C 0.500776 0.497139 0.520526
161 F 0.506445 0.511317 0.516462
57 F 0.505868 0.503118 0.541761
75 F 0.488005 0.500764 0.542163
85 F 0.489529 0.496212 0.530167
92 F 0.498814 0.492666 0.535017
101 F 0.506043 0.503419 0.529044
110 F 0.496494 0.50738 0.524831
323 C 0.499676 0.503498 0.544714
337 C 0.493964 0.502942 0.53918
345 C 0.495559 0.498401 0.532847
350 C 0.499665 0.501637 0.52697
70 F 0.49215 0.509332 0.537072
46 F 0.560235 0.528843 0.544635
8 F 0.573265 0.531852 0.543243
87 F 0.574787 0.527767 0.51869
73 F 0.586351 0.519668 0.516048
103 F 0.58978 0.537275 0.516261
340 C 0.580238 0.529994 0.515106
353 C 0.584709 0.53432 0.519831
114 F 0.576662 0.543304 0.519786
108 F 0.587947 0.530243 0.524323
124 F 0.576894 0.537157 0.528547
156 F 0.595865 0.539995 0.530092
163 F 0.586248 0.534028 0.538335
359 C 0.580935 0.539951 0.523914
373 C 0.59074 0.543686 0.532831
379 C 0.588542 0.54038 0.539613
191 F 0.577442 0.544802 0.541268
392 C 0.58359 0.544305 0.544256
175 F 0.59425 0.539049 0.543237
366 C 0.585488 0.545451 0.52735
138 F 0.588821 0.548886 0.522335
132 F 0.581337 0.550479 0.529718
146 F 0.594164 0.549531 0.534453
183 F 0.585685 0.550932 0.544571
473 O 0.612638 0.557715 0.539651
501 H 0.618214 0.570073 0.541074
37 F 0.498164 0.491935 0.548026
42 F 0.493471 0.499415 0.554325
322 C 0.499251 0.498239 0.550668
27 F 0.511498 0.498377 0.552142
61 F 0.499999 0.50989 0.547093
4 F 0.500876 0.500715 0.566518
10 F 0.502136 0.508948 0.560033
24 F 0.505815 0.491761 0.558592
299 C 0.505233 0.503009 0.561748
310 C 0.505446 0.498077 0.555728
408 C 0.512305 0.504486 0.564981
400 C 0.511975 0.508371 0.572002
198 F 0.505749 0.5114 0.572802
223 F 0.508071 0.494174 0.575693
217 F 0.515806 0.508117 0.560235
211 F 0.516106 0.498752 0.565765
162 F 0.526907 0.511684 0.565858
382 C 0.524907 0.512472 0.572401
391 C 0.517206 0.514343 0.572797
174 F 0.525905 0.506098 0.574974
111 F 0.539691 0.516389 0.563215
190 F 0.515777 0.519171 0.568039
86 F 0.538888 0.523912 0.551571
121 F 0.533649 0.533173 0.565483
128 F 0.528527 0.52434 0.561434
134 F 0.524992 0.527741 0.574406
352 C 0.540351 0.523186 0.56349
360 C 0.533375 0.526186 0.565962
363 C 0.53101 0.524588 0.573218
94 F 0.543234 0.53227 0.556164
102 F 0.545037 0.524512 0.568345
341 C 0.543263 0.525368 0.556478
34 F 0.554564 0.536607 0.549682
77 F 0.55072 0.521104 0.548071
315 C 0.559532 0.531927 0.550792
11 F 0.572633 0.525668 0.551978
304 C 0.573079 0.532342 0.55008
29 F 0.566571 0.53767 0.558732
53 F 0.555446 0.530644 0.561952
64 F 0.562031 0.523078 0.558553
68 F 0.55131 0.516364 0.557451
309 C 0.566362 0.53583 0.552171
326 C 0.556857 0.527129 0.556334
334 C 0.550495 0.522689 0.554765
18 F 0.566258 0.541814 0.548762
205 F 0.579722 0.533552 0.560011
212 F 0.585065 0.530523 0.551215
224 F 0.58747 0.54274 0.566219
241 F 0.601104 0.540291 0.559936
248 F 0.599026 0.541932 0.573775
409 C 0.580049 0.534753 0.55319
401 C 0.582463 0.542091 0.551803
456 O 0.58911 0.543094 0.554831
281 F 0.604691 0.548711 0.548258
288 F 0.602255 0.562582 0.550225
199 F 0.577972 0.546643 0.554669
233 F 0.587877 0.552606 0.561414
256 F 0.597407 0.552708 0.572353
417 C 0.590543 0.546258 0.561145
424 C 0.598307 0.546228 0.562236
432 C 0.600524 0.54728 0.569708
465 O 0.600699 0.551828 0.558434
440 C 0.606433 0.552073 0.554096
449 C 0.607866 0.559635 0.55275
480 O 0.621204 0.558432 0.549644
488 O 0.615055 0.569393 0.545884
496 S 0.614356 0.561062 0.546673
265 F 0.607303 0.548271 0.570167
273 F 0.611955 0.548834 0.556582
296 F 0.609589 0.562984 0.558345
247 F 0.508513 0.48431 0.585209
416 C 0.508827 0.498973 0.580503
455 O 0.513078 0.504173 0.577919
232 F 0.502753 0.501768 0.581791
255 F 0.501342 0.490695 0.590792
431 C 0.508027 0.489616 0.589521
264 F 0.510636 0.487322 0.595438
423 C 0.511843 0.495989 0.587054
464 O 0.511531 0.501228 0.59215
287 F 0.511443 0.514058 0.598042
295 F 0.511225 0.505776 0.605346
448 C 0.515264 0.508968 0.600732
157 F 0.536439 0.514203 0.575814
240 F 0.51827 0.493895 0.585653
272 F 0.520811 0.498619 0.598341
280 F 0.52159 0.506859 0.590621
439 C 0.517485 0.503911 0.59528
495 S 0.522106 0.512669 0.605222
375 C 0.530231 0.517219 0.575792
141 F 0.53503 0.528059 0.577698
149 F 0.528905 0.517281 0.582556
182 F 0.515907 0.517659 0.578751
472 O 0.527381 0.516407 0.600557
479 O 0.525671 0.50699 0.609732
504 H 0.518981 0.52345 0.607999
487 O 0.518619 0.518205 0.610429
ITEM: TIMESTEP
10000
ITEM: NUMBER OF ATOMS
506
ITEM: BOX BOUNDS pp pp pp
-1.0000000000000000e+02 1.0000000000000000e+02
-1.0000000000000000e+02 1.0000000000000000e+02
-1.0000000000000000e+02 1.0000000000000000e+02
ITEM: ATOMS id element xs ys zs
266 F 0.651548 0.516669 0.394139
271 F 0.649184 0.529676 0.387814
298 F 0.662231 0.533346 0.391278
441 C 0.650358 0.533791 0.393193
447 C 0.656937 0.537771 0.39198
279 F 0.644969 0.538035 0.393767
482 O 0.654321 0.538572 0.378374
497 S 0.656684 0.542985 0.384558
490 O 0.664003 0.546548 0.382371
503 H 0.663228 0.548216 0.376821
474 O 0.651483 0.548875 0.385638
249 F 0.645527 0.512567 0.402552
12 F 0.619208 0.534944 0.422752
214 F 0.625204 0.534004 0.410726
301 C 0.625782 0.536776 0.422798
410 C 0.629438 0.533742 0.416371
6 F 0.625004 0.543441 0.422218
176 F 0.633489 0.542373 0.4015
206 F 0.629245 0.526866 0.417177
242 F 0.640341 0.524699 0.39712
258 F 0.655352 0.517259 0.404467
426 C 0.646034 0.524741 0.401272
434 C 0.649701 0.517807 0.400702
463 O 0.650798 0.529998 0.399323
289 F 0.658627 0.541719 0.39737
200 F 0.640799 0.53439 0.419751
226 F 0.640039 0.521165 0.41124
234 F 0.649163 0.52731 0.412667
402 C 0.636744 0.535836 0.414258
418 C 0.643717 0.526253 0.408433
457 O 0.639221 0.532132 0.408502
394 C 0.638037 0.543404 0.412505
184 F 0.644696 0.544214 0.41079
80 F 0.605021 0.570829 0.411613
104 F 0.624657 0.568116 0.402557
154 F 0.631333 0.555236 0.398771
67 F 0.609094 0.565942 0.403272
88 F 0.615054 0.56525 0.417424
106 F 0.620082 0.558907 0.405848
116 F 0.631003 0.567964 0.416738
122 F 0.627128 0.557875 0.417342
169 F 0.626931 0.547079 0.408776
351 C 0.622712 0.564771 0.40821
362 C 0.628944 0.562669 0.4127
364 C 0.635433 0.560169 0.408819
371 C 0.635401 0.553827 0.404021
380 C 0.633633 0.546683 0.406871
97 F 0.619657 0.574519 0.414674
333 C 0.610707 0.571024 0.407611
339 C 0.617069 0.568802 0.411874
139 F 0.637809 0.565595 0.405336
147 F 0.64165 0.553407 0.400957
130 F 0.640514 0.559317 0.41338
193 F 0.637318 0.547272 0.418232
17 F 0.60112 0.598447 0.396389
16 F 0.597512 0.588089 0.397162
300 C 0.600992 0.593007 0.400424
3 F 0.597106 0.594765 0.405875
49 F 0.602262 0.583526 0.410409
60 F 0.606565 0.577232 0.397994
32 F 0.612443 0.590576 0.397345
52 F 0.617088 0.578836 0.401057
308 C 0.608192 0.590972 0.402876
328 C 0.610692 0.577842 0.403619
21 F 0.610652 0.596308 0.406294
36 F 0.612911 0.585326 0.41256
320 C 0.608517 0.584385 0.407357
485 O 0.415215 0.494421 0.450655
505 H 0.417722 0.498342 0.447201
26 F 0.631767 0.528968 0.43024
59 F 0.616753 0.527209 0.432601
312 C 0.628949 0.535124 0.429981
48 F 0.621051 0.54229 0.43566
39 F 0.628303 0.537437 0.441746
56 F 0.623244 0.524876 0.440404
66 F 0.608492 0.527131 0.442359
81 F 0.610632 0.537403 0.442197
96 F 0.621993 0.532823 0.452164
105 F 0.617624 0.519007 0.451217
317 C 0.624241 0.536161 0.436322
330 C 0.619433 0.530159 0.43821
331 C 0.613717 0.531449 0.44368
346 C 0.615396 0.530904 0.451314
20 F 0.634531 0.539179 0.430714
112 F 0.607534 0.522411 0.454458
180 F 0.421822 0.481149 0.480349
135 F 0.436875 0.479047 0.481698
263 F 0.587299 0.484456 0.483784
481 O 0.609763 0.477319 0.47139
489 O 0.62035 0.479669 0.478941
506 H 0.62304 0.476577 0.474865
498 S 0.613775 0.483161 0.474831
253 F 0.392324 0.495834 0.480372
229 F 0.400681 0.485243 0.485005
293 F 0.40322 0.495983 0.46173
446 C 0.409533 0.494519 0.464092
477 O 0.413648 0.505756 0.456987
493 S 0.415543 0.498145 0.458222
237 F 0.408866 0.501456 0.484779
261 F 0.396868 0.505621 0.478589
270 F 0.410105 0.504084 0.471579
277 F 0.416529 0.495281 0.474021
285 F 0.410035 0.487535 0.463917
422 C 0.40426 0.496696 0.482629
430 C 0.397199 0.499943 0.482655
437 C 0.410505 0.497196 0.471346
462 O 0.405434 0.494442 0.475702
469 O 0.423042 0.497919 0.460617
143 F 0.443292 0.487061 0.478303
152 F 0.430568 0.490359 0.476735
367 C 0.439325 0.485155 0.483603
376 C 0.433036 0.489957 0.483338
159 F 0.435242 0.496431 0.484416
230 F 0.497597 0.508996 0.481646
461 O 0.508743 0.515402 0.484556
294 F 0.522034 0.513165 0.480258
274 F 0.598467 0.485515 0.474582
239 F 0.589441 0.49542 0.475114
415 C 0.590541 0.503436 0.484218
425 C 0.591216 0.495933 0.481791
458 O 0.594708 0.507559 0.480253
466 O 0.598194 0.494076 0.482525
442 C 0.602161 0.49054 0.477603
177 F 0.598535 0.509963 0.467779
399 C 0.597118 0.514324 0.481735
381 C 0.603498 0.514443 0.469562
225 F 0.583931 0.505365 0.483175
282 F 0.603598 0.494981 0.47259
450 C 0.608506 0.487488 0.480881
471 O 0.61677 0.488027 0.469277
140 F 0.621569 0.512683 0.463044
155 F 0.608543 0.510307 0.459267
148 F 0.611551 0.505712 0.468212
185 F 0.608301 0.510671 0.479951
372 C 0.610062 0.512064 0.465851
290 F 0.612357 0.492359 0.483895
221 F 0.490696 0.517585 0.482898
246 F 0.497895 0.527597 0.476205
254 F 0.503497 0.518556 0.472414
262 F 0.508599 0.527267 0.476999
429 C 0.503133 0.52331 0.477472
421 C 0.502787 0.519631 0.484335
393 C 0.603835 0.515279 0.477464
164 F 0.600985 0.520256 0.466867
213 F 0.587934 0.517912 0.47556
218 F 0.594506 0.525976 0.477876
407 C 0.591926 0.520132 0.480653
1 F 0.581972 0.525738 0.484284
89 F 0.612052 0.535886 0.454801
354 C 0.614337 0.523953 0.454861
117 F 0.622793 0.526196 0.463141
356 C 0.616544 0.523601 0.46247
123 F 0.612576 0.527787 0.466241
131 F 0.618665 0.516951 0.472417
192 F 0.606846 0.521217 0.479129
365 C 0.616591 0.516439 0.465864
475 O 0.284492 0.422784 0.515195
220 F 0.363441 0.411851 0.505037
228 F 0.369078 0.409922 0.514458
236 F 0.375648 0.40913 0.497905
244 F 0.365595 0.399875 0.499433
252 F 0.368938 0.396936 0.509649
260 F 0.375234 0.394983 0.500749
268 F 0.387232 0.402132 0.500005
412 C 0.369627 0.4118 0.50794
420 C 0.374333 0.40667 0.504284
428 C 0.371112 0.399667 0.503511
436 C 0.387038 0.406071 0.505589
452 O 0.372384 0.41854 0.507359
460 O 0.380339 0.406489 0.508344
276 F 0.389038 0.412377 0.503787
292 F 0.389599 0.396623 0.512691
444 C 0.391654 0.402998 0.511035
499 H 0.410384 0.400818 0.513212
468 O 0.403191 0.409864 0.507964
476 O 0.401218 0.398681 0.501422
484 O 0.405045 0.398625 0.514274
492 S 0.400286 0.402512 0.508278
259 F 0.273977 0.451553 0.508568
267 F 0.283192 0.436612 0.511694
235 F 0.287745 0.449998 0.509636
203 F 0.360382 0.425291 0.504877
15 F 0.359279 0.439106 0.505202
63 F 0.346016 0.44029 0.508372
71 F 0.336937 0.448927 0.511721
302 C 0.362579 0.435787 0.510294
325 C 0.34554 0.441065 0.515217
396 C 0.370449 0.424402 0.511292
404 C 0.365651 0.429168 0.507237
208 F 0.368969 0.430605 0.501335
158 F 0.393891 0.433602 0.505673
167 F 0.38021 0.435868 0.506039
171 F 0.383041 0.425744 0.503544
377 C 0.390151 0.431627 0.511183
383 C 0.382779 0.430199 0.508837
150 F 0.393083 0.425505 0.512801
109 F 0.389418 0.446332 0.504074
348 C 0.391839 0.448828 0.510091
7 F 0.367593 0.440356 0.511884
388 C 0.37744 0.427363 0.513926
99 F 0.398716 0.448397 0.50961
427 C 0.277237 0.454931 0.513602
243 F 0.277784 0.461441 0.511483
72 F 0.387136 0.458767 0.498747
79 F 0.387849 0.467262 0.505156
83 F 0.38343 0.457133 0.512105
343 C 0.390041 0.456468 0.510303
338 C 0.390952 0.461159 0.503959
196 F 0.411725 0.476886 0.487816
397 C 0.414983 0.482399 0.49026
389 C 0.422369 0.482419 0.487194
9 F 0.402757 0.478942 0.497924
19 F 0.414659 0.470174 0.507794
33 F 0.412258 0.467198 0.497852
35 F 0.405703 0.461409 0.510413
45 F 0.399852 0.470419 0.510531
55 F 0.401014 0.457194 0.498639
62 F 0.39749 0.466907 0.495762
311 C 0.409504 0.470581 0.503075
318 C 0.40343 0.466436 0.506207
329 C 0.398192 0.462892 0.501328
216 F 0.420286 0.480093 0.501125
303 C 0.408416 0.478204 0.501499
405 C 0.414429 0.482194 0.498191
2 F 0.406916 0.481197 0.507542
189 F 0.425743 0.476919 0.489528
115 F 0.448608 0.479709 0.488433
125 F 0.440387 0.481252 0.494941
357 C 0.443916 0.484426 0.489942
297 F 0.606642 0.482896 0.485727
413 C 0.404814 0.490287 0.487051
222 F 0.403059 0.491793 0.493518
245 F 0.395417 0.502312 0.488725
453 O 0.41169 0.488047 0.486949
172 F 0.422992 0.494518 0.488383
209 F 0.414383 0.488704 0.500363
100 F 0.450099 0.494558 0.487375
384 C 0.426943 0.488796 0.488225
113 F 0.442528 0.494743 0.495487
168 F 0.429534 0.48885 0.494732
349 C 0.447507 0.49091 0.49271
69 F 0.452113 0.501715 0.501097
84 F 0.450264 0.486733 0.503443
344 C 0.453275 0.490042 0.498118
23 F 0.481974 0.495083 0.497285
31 F 0.475905 0.501262 0.490723
51 F 0.46295 0.498312 0.490697
314 C 0.476913 0.499705 0.497383
14 F 0.47463 0.510084 0.503469
41 F 0.470222 0.489693 0.499052
44 F 0.470744 0.496848 0.507087
65 F 0.463773 0.506152 0.4978
76 F 0.458031 0.495945 0.507709
93 F 0.458062 0.485724 0.49566
321 C 0.470219 0.496385 0.500206
327 C 0.463398 0.499238 0.497551
335 C 0.4568 0.496618 0.500914
305 C 0.4798 0.505902 0.501383
5 F 0.48245 0.503707 0.507454
204 F 0.481853 0.513673 0.492616
414 C 0.496552 0.514813 0.485213
197 F 0.490826 0.502614 0.490616
398 C 0.492131 0.507548 0.49534
406 C 0.485149 0.510376 0.49778
454 O 0.495681 0.513199 0.492213
137 F 0.505798 0.495794 0.510076
153 F 0.511016 0.508574 0.507618
165 F 0.493853 0.509913 0.511274
181 F 0.502855 0.502764 0.497467
188 F 0.494444 0.498589 0.503267
374 C 0.505315 0.507702 0.511512
386 C 0.499076 0.509229 0.506834
390 C 0.497061 0.50461 0.500857
370 C 0.505855 0.500667 0.515015
500 H 0.53937 0.511906 0.491122
286 F 0.518773 0.505205 0.48687
445 C 0.520347 0.511985 0.486788
470 O 0.526915 0.511 0.499346
486 O 0.534735 0.509099 0.488991
494 S 0.527865 0.513412 0.491734
250 F 0.580049 0.492466 0.485405
433 C 0.586798 0.49096 0.48578
231 F 0.592132 0.503778 0.490969
257 F 0.588326 0.490904 0.492437
201 F 0.599222 0.514471 0.488332
173 F 0.500231 0.515556 0.504198
210 F 0.48644 0.515594 0.502066
238 F 0.502632 0.524407 0.489428
278 F 0.512413 0.515349 0.495291
438 C 0.51441 0.5166 0.48886
269 F 0.516298 0.52318 0.488606
478 O 0.530006 0.521006 0.491832
13 F 0.584457 0.516986 0.489767
22 F 0.592067 0.533306 0.488985
306 C 0.587416 0.522483 0.486763
307 C 0.590599 0.527401 0.492121
28 F 0.596919 0.525582 0.493899
40 F 0.587641 0.535295 0.500669
47 F 0.579754 0.528866 0.497138
50 F 0.593788 0.525896 0.507617
58 F 0.589153 0.517761 0.502506
74 F 0.576949 0.519739 0.507691
95 F 0.5766 0.533628 0.509161
319 C 0.586429 0.528789 0.498641
324 C 0.587779 0.524062 0.50474
332 C 0.582318 0.523378 0.510388
340 C 0.579507 0.529891 0.513992
103 F 0.588949 0.537221 0.513759
483 O 0.284032 0.420224 0.528095
502 H 0.286741 0.415299 0.526611
195 F 0.367048 0.422388 0.516905
284 F 0.391584 0.406608 0.516849
179 F 0.380515 0.42247 0.517623
467 O 0.294722 0.425464 0.5222
491 S 0.286839 0.425653 0.522208
275 F 0.292165 0.439531 0.51722
291 F 0.276546 0.433153 0.523981
435 C 0.285467 0.438839 0.51782
443 C 0.2834 0.433894 0.523567
459 O 0.282253 0.445266 0.518923
419 C 0.284033 0.45139 0.515392
451 O 0.294162 0.452188 0.52215
283 F 0.285525 0.43633 0.529669
178 F 0.300175 0.442489 0.529753
395 C 0.298896 0.453783 0.527469
194 F 0.295128 0.454251 0.533074
98 F 0.329412 0.436754 0.518879
151 F 0.307447 0.434487 0.522056
160 F 0.315149 0.438601 0.515666
347 C 0.328802 0.4428 0.522075
378 C 0.312308 0.439402 0.521915
107 F 0.325481 0.447004 0.517735
170 F 0.304439 0.446576 0.516383
385 C 0.308324 0.446124 0.522007
119 F 0.327625 0.438862 0.533458
136 F 0.314279 0.436938 0.533434
142 F 0.319562 0.431026 0.526059
355 C 0.324006 0.441842 0.528345
369 C 0.317581 0.437517 0.527411
127 F 0.322156 0.447823 0.531094
186 F 0.307765 0.44889 0.533969
387 C 0.303979 0.447921 0.52831
166 F 0.312847 0.45118 0.521129
30 F 0.353958 0.429227 0.515782
43 F 0.356022 0.447083 0.515858
54 F 0.34257 0.4351 0.517026
313 C 0.357604 0.43508 0.516401
316 C 0.352935 0.44131 0.51794
336 C 0.3407 0.446988 0.517213
342 C 0.335994 0.445739 0.523585
78 F 0.344197 0.452873 0.518308
25 F 0.361577 0.433679 0.52186
38 F 0.352444 0.442393 0.524706
90 F 0.33927 0.441654 0.528119
82 F 0.334964 0.451539 0.52734
361 C 0.389084 0.444373 0.515894
126 F 0.382209 0.444389 0.515666
133 F 0.389387 0.434193 0.522662
187 F 0.376043 0.432272 0.518626
368 C 0.391701 0.436972 0.516836
120 F 0.390504 0.447653 0.521795
144 F 0.398421 0.437193 0.518193
251 F 0.272836 0.455065 0.518879
411 C 0.288373 0.455955 0.520126
227 F 0.284791 0.458007 0.525699
219 F 0.290652 0.461495 0.51672
202 F 0.298442 0.466192 0.527751
403 C 0.302391 0.460768 0.526196
207 F 0.304225 0.461726 0.519575
215 F 0.307986 0.461666 0.529912
91 F 0.393207 0.459366 0.515741
118 F 0.502516 0.491569 0.522041
129 F 0.494513 0.497463 0.517239
145 F 0.51226 0.500332 0.517606
358 C 0.500659 0.498138 0.520432
161 F 0.50596 0.512486 0.516452
57 F 0.50423 0.506086 0.541874
75 F 0.488222 0.498474 0.54216
85 F 0.49058 0.495052 0.530104
92 F 0.500018 0.493308 0.535214
101 F 0.506117 0.504004 0.529104
110 F 0.496446 0.50818 0.525705
323 C 0.498354 0.50406 0.544849
337 C 0.493151 0.502212 0.539106
345 C 0.495913 0.49824 0.532941
350 C 0.499705 0.502229 0.527135
70 F 0.489408 0.50762 0.536922
46 F 0.560334 0.527892 0.544306
8 F 0.573734 0.531 0.54193
87 F 0.574179 0.528185 0.518031
73 F 0.584556 0.519039 0.515307
353 C 0.584597 0.534286 0.518082
114 F 0.576781 0.543413 0.518414
108 F 0.58835 0.530208 0.522071
124 F 0.577213 0.53744 0.5273
156 F 0.596438 0.539858 0.528184
163 F 0.586006 0.533511 0.536095
359 C 0.581399 0.540044 0.522478
373 C 0.591281 0.543363 0.531181
379 C 0.588812 0.539542 0.537722
191 F 0.577917 0.54405 0.540122
392 C 0.584091 0.543421 0.542861
175 F 0.594539 0.537795 0.541159