LAMMPS data file via write_data, version 2 Aug 2023, timestep = 0, units = real

7224 atoms
8 atom types
7396 bonds
7 bond types
11388 angles
5 angle types
18504 dihedrals
16 dihedral types
2380 impropers
1 improper types

-20.25 20.25 xlo xhi
-20.25 20.25 ylo yhi
-0.5 300 zlo zhi

Masses

1 18.9984
2 12.011
3 15.9994
4 15.9994
5 32.06
6 12.011
7 1.008
8 15.9994

PairIJ Coeffs # lj/cut/coul/long

1 1 0.0725 3.0932 10
1 2 0.0830346 3.28309 10
1 3 0.0832962 3.06318 10
1 4 0.0832962 3.06318 10
1 5 0.157924 3.34176 10
1 6 0.0691737 3.2466 10
1 7 0 1.5466 10
1 8 0.106007 3.1291 10
2 2 0.0951 3.47299 10
2 3 0.0953995 3.25307 10
2 4 0.0953995 3.25307 10
2 5 0.180871 3.53166 10
2 6 0.079225 3.43649 10
2 7 0 1.73649 10
2 8 0.12141 3.319 10
3 3 0.0957 3.03315 10
3 4 0.0957 3.03315 10
3 5 0.181441 3.31174 10
3 6 0.0794745 3.21658 10
3 7 0 1.51658 10
3 8 0.121793 3.09908 10
4 4 0.0957 3.03315 10
4 5 0.181441 3.31174 10
4 6 0.0794745 3.21658 10
4 7 0 1.51658 10
4 8 0.121793 3.09908 10
5 5 0.344 3.59032 10
5 6 0.150678 3.49516 10
5 7 0 1.79516 10
5 8 0.230911 3.37766 10
6 6 0.066 3.4 10
6 7 0 1.7 10
6 8 0.101143 3.2825 10
7 7 0 0 10
7 8 0 1.5825 10
8 8 0.155 3.165 10

Bond Coeffs # harmonic

1 350 1.371
2 350 1.53
3 350 1.42
4 350 1.8
5 350 1.59
6 469 1.4
7 529.581 1.012

Improper Coeffs # harmonic

1 5 180

Atoms # full

1 1 6 -0.017 -18.0795 -18.420361 0 0 0 0
2 2 6 -0.04418 -18.7885 -17.192337 0 0 0 0
3 3 6 -0.05138 -16.6615 -18.420361 0 0 0 0
4 4 6 0.0516 -15.9525 -17.192337 0 0 0 0
5 5 6 -0.05957 -13.8255 -18.420361 0 0 0 0
6 6 6 0.04981 -14.5345 -17.192337 0 0 0 0
37 37 6 0.07781 -18.0795 -15.964313 0 0 0 0
38 38 6 -0.08581 -18.7885 -14.736289 0 0 0 0
39 39 6 0.02361 -16.6615 -15.964313 0 0 0 0
40 40 6 0.00316 -15.9525 -14.736289 0 0 0 0
41 41 6 0.00911 -13.8255 -15.964313 0 0 0 0
42 42 6 0.00079 -14.5345 -14.736289 0 0 0 0
73 73 6 0.06944 -18.0795 -13.508265 0 0 0 0
75 75 6 0.01457 -16.6615 -13.508265 0 0 0 0
77 77 6 3e-05 -13.8255 -13.508265 0 0 0 0
541 541 6 -0.017 -17.3705 -17.192337 3.35 0 0 0
542 542 6 -0.04418 -18.0795 -15.964313 3.35 0 0 0
543 543 6 -0.05138 -15.9525 -17.192337 3.35 0 0 0
544 544 6 0.0516 -15.2435 -15.964313 3.35 0 0 0
546 546 6 0.04981 -13.8255 -15.964313 3.35 0 0 0
577 577 6 0.07781 -17.3705 -14.736289 3.35 0 0 0
578 578 6 -0.08581 -18.0795 -13.508265 3.35 0 0 0
579 579 6 0.02361 -15.9525 -14.736289 3.35 0 0 0
580 580 6 0.00316 -15.2435 -13.508265 3.35 0 0 0
582 582 6 0.00079 -13.8255 -13.508265 3.35 0 0 0
7 7 6 -0.05957 -12.4075 -18.420361 0 0 0 0
8 8 6 0.04975 -11.6985 -17.192337 0 0 0 0
9 9 6 -0.05957 -9.5715 -18.420361 0 0 0 0
10 10 6 0.04975 -10.2805 -17.192337 0 0 0 0
11 11 6 -0.05957 -8.1535 -18.420361 0 0 0 0
12 12 6 0.04975 -7.4445 -17.192337 0 0 0 0
43 43 6 0.0091 -12.4075 -15.964313 0 0 0 0
44 44 6 0.0007 -11.6985 -14.736289 0 0 0 0
45 45 6 0.0091 -9.5715 -15.964313 0 0 0 0
46 46 6 0.0007 -10.2805 -14.736289 0 0 0 0
47 47 6 0.0091 -8.1535 -15.964313 0 0 0 0
48 48 6 0.0007 -7.4445 -14.736289 0 0 0 0
79 79 6 2e-05 -12.4075 -13.508265 0 0 0 0
81 81 6 2e-05 -9.5715 -13.508265 0 0 0 0
83 83 6 2e-05 -8.1535 -13.508265 0 0 0 0
545 545 6 -0.05957 -13.1165 -17.192337 3.35 0 0 0
547 547 6 -0.05957 -11.6985 -17.192337 3.35 0 0 0
548 548 6 0.04975 -10.9895 -15.964313 3.35 0 0 0
549 549 6 -0.05957 -8.8625 -17.192337 3.35 0 0 0
550 550 6 0.04975 -9.5715 -15.964313 3.35 0 0 0
551 551 6 -0.05957 -7.4445 -17.192337 3.35 0 0 0
581 581 6 0.00911 -13.1165 -14.736289 3.35 0 0 0
583 583 6 0.0091 -11.6985 -14.736289 3.35 0 0 0
584 584 6 0.0007 -10.9895 -13.508265 3.35 0 0 0
585 585 6 0.0091 -8.8625 -14.736289 3.35 0 0 0
586 586 6 0.0007 -9.5715 -13.508265 3.35 0 0 0
587 587 6 0.0091 -7.4445 -14.736289 3.35 0 0 0
13 13 6 -0.05957 -5.3175 -18.420361 0 0 0 0
14 14 6 0.04975 -6.0265 -17.192337 0 0 0 0
15 15 6 -0.05957 -3.8995 -18.420361 0 0 0 0
16 16 6 0.04975 -3.1905 -17.192337 0 0 0 0
17 17 6 -0.05957 -1.063499 -18.420361 0 0 0 0
18 18 6 0.04975 -1.772501 -17.192337 0 0 0 0
49 49 6 0.0091 -5.3175 -15.964313 0 0 0 0
50 50 6 0.0007 -6.0265 -14.736289 0 0 0 0
51 51 6 0.0091 -3.8995 -15.964313 0 0 0 0
52 52 6 0.0007 -3.1905 -14.736289 0 0 0 0
53 53 6 0.0091 -1.063499 -15.964313 0 0 0 0
54 54 6 0.0007 -1.772501 -14.736289 0 0 0 0
85 85 6 2e-05 -5.3175 -13.508265 0 0 0 0
87 87 6 2e-05 -3.8995 -13.508265 0 0 0 0
89 89 6 2e-05 -1.063499 -13.508265 0 0 0 0
552 552 6 0.04975 -6.7355 -15.964313 3.35 0 0 0
553 553 6 -0.05957 -4.6085 -17.192337 3.35 0 0 0
554 554 6 0.04975 -5.3175 -15.964313 3.35 0 0 0
555 555 6 -0.05957 -3.1905 -17.192337 3.35 0 0 0
556 556 6 0.04975 -2.4815 -15.964313 3.35 0 0 0
557 557 6 -0.05957 -0.3545 -17.192337 3.35 0 0 0
558 558 6 0.04975 -1.063499 -15.964313 3.35 0 0 0
588 588 6 0.0007 -6.7355 -13.508265 3.35 0 0 0
589 589 6 0.0091 -4.6085 -14.736289 3.35 0 0 0
590 590 6 0.0007 -5.3175 -13.508265 3.35 0 0 0
591 591 6 0.0091 -3.1905 -14.736289 3.35 0 0 0
592 592 6 0.0007 -2.4815 -13.508265 3.35 0 0 0
593 593 6 0.0091 -0.3545 -14.736289 3.35 0 0 0
594 594 6 0.0007 -1.063499 -13.508265 3.35 0 0 0
19 19 6 -0.05957 0.3545 -18.420361 0 0 0 0
20 20 6 0.04975 1.0635 -17.192337 0 0 0 0
21 21 6 -0.05957 3.1905 -18.420361 0 0 0 0
22 22 6 0.04975 2.481501 -17.192337 0 0 0 0
23 23 6 -0.05957 4.6085 -18.420361 0 0 0 0
24 24 6 0.04975 5.317499 -17.192337 0 0 0 0
26 26 6 0.04975 6.735501 -17.192337 0 0 0 0
55 55 6 0.0091 0.3545 -15.964313 0 0 0 0
56 56 6 0.0007 1.0635 -14.736289 0 0 0 0
57 57 6 0.0091 3.1905 -15.964313 0 0 0 0
58 58 6 0.0007 2.481501 -14.736289 0 0 0 0
59 59 6 0.0091 4.6085 -15.964313 0 0 0 0
60 60 6 0.0007 5.317499 -14.736289 0 0 0 0
62 62 6 0.0007 6.735501 -14.736289 0 0 0 0
91 91 6 2e-05 0.3545 -13.508265 0 0 0 0
93 93 6 2e-05 3.1905 -13.508265 0 0 0 0
95 95 6 2e-05 4.6085 -13.508265 0 0 0 0
559 559 6 -0.05957 1.0635 -17.192337 3.35 0 0 0
560 560 6 0.04975 1.772499 -15.964313 3.35 0 0 0
561 561 6 -0.05957 3.8995 -17.192337 3.35 0 0 0
562 562 6 0.04975 3.1905 -15.964313 3.35 0 0 0
563 563 6 -0.05957 5.317499 -17.192337 3.35 0 0 0
564 564 6 0.04975 6.026501 -15.964313 3.35 0 0 0
595 595 6 0.0091 1.0635 -14.736289 3.35 0 0 0
596 596 6 0.0007 1.772499 -13.508265 3.35 0 0 0
597 597 6 0.0091 3.8995 -14.736289 3.35 0 0 0
598 598 6 0.0007 3.1905 -13.508265 3.35 0 0 0
599 599 6 0.0091 5.317499 -14.736289 3.35 0 0 0
600 600 6 0.0007 6.026501 -13.508265 3.35 0 0 0
25 25 6 -0.05957 7.4445 -18.420361 0 0 0 0
27 27 6 -0.05957 8.862499 -18.420361 0 0 0 0
28 28 6 0.04975 9.571499 -17.192337 0 0 0 0
29 29 6 -0.05957 11.6985 -18.420361 0 0 0 0
30 30 6 0.04975 10.9895 -17.192337 0 0 0 0
31 31 6 -0.05957 13.116499 -18.420361 0 0 0 0
61 61 6 0.0091 7.4445 -15.964313 0 0 0 0
63 63 6 0.0091 8.862499 -15.964313 0 0 0 0
64 64 6 0.0007 9.571499 -14.736289 0 0 0 0
65 65 6 0.0091 11.6985 -15.964313 0 0 0 0
66 66 6 0.0007 10.9895 -14.736289 0 0 0 0
67 67 6 0.00911 13.116499 -15.964313 0 0 0 0
97 97 6 2e-05 7.4445 -13.508265 0 0 0 0
99 99 6 2e-05 8.862499 -13.508265 0 0 0 0
101 101 6 2e-05 11.6985 -13.508265 0 0 0 0
103 103 6 3e-05 13.116499 -13.508265 0 0 0 0
565 565 6 -0.05957 8.1535 -17.192337 3.35 0 0 0
566 566 6 0.04975 7.4445 -15.964313 3.35 0 0 0
567 567 6 -0.05957 9.571499 -17.192337 3.35 0 0 0
568 568 6 0.04975 10.280501 -15.964313 3.35 0 0 0
569 569 6 -0.05957 12.4075 -17.192337 3.35 0 0 0
570 570 6 0.04975 11.6985 -15.964313 3.35 0 0 0
601 601 6 0.0091 8.1535 -14.736289 3.35 0 0 0
602 602 6 0.0007 7.4445 -13.508265 3.35 0 0 0
603 603 6 0.0091 9.571499 -14.736289 3.35 0 0 0
604 604 6 0.0007 10.280501 -13.508265 3.35 0 0 0
605 605 6 0.0091 12.4075 -14.736289 3.35 0 0 0
606 606 6 0.0007 11.6985 -13.508265 3.35 0 0 0
32 32 6 0.04981 13.825501 -17.192337 0 0 0 0
33 33 6 -0.05138 15.952501 -18.420361 0 0 0 0
34 34 6 0.0516 15.243502 -17.192337 0 0 0 0
35 35 6 -0.017 17.370501 -18.420361 0 0 0 0
36 36 6 -0.04418 18.0795 -17.192337 0 0 0 0
68 68 6 0.00079 13.825501 -14.736289 0 0 0 0
69 69 6 0.02361 15.952501 -15.964313 0 0 0 0
70 70 6 0.00316 15.243502 -14.736289 0 0 0 0
71 71 6 0.07781 17.370501 -15.964313 0 0 0 0
72 72 6 -0.08581 18.0795 -14.736289 0 0 0 0
105 105 6 0.01457 15.952501 -13.508265 0 0 0 0
107 107 6 0.06944 17.370501 -13.508265 0 0 0 0
571 571 6 -0.05957 13.825501 -17.192337 3.35 0 0 0
572 572 6 0.04981 14.534498 -15.964313 3.35 0 0 0
573 573 6 -0.05138 16.661501 -17.192337 3.35 0 0 0
574 574 6 0.0516 15.952501 -15.964313 3.35 0 0 0
575 575 6 -0.017 18.0795 -17.192337 3.35 0 0 0
576 576 6 -0.04418 18.7885 -15.964313 3.35 0 0 0
607 607 6 0.00911 13.825501 -14.736289 3.35 0 0 0
608 608 6 0.00079 14.534498 -13.508265 3.35 0 0 0
609 609 6 0.02361 16.661501 -14.736289 3.35 0 0 0
610 610 6 0.00316 15.952501 -13.508265 3.35 0 0 0
611 611 6 0.07781 18.0795 -14.736289 3.35 0 0 0
612 612 6 -0.08581 18.7885 -13.508265 3.35 0 0 0
74 74 6 -0.08649999999999999 -18.7885 -12.280241 0 0 0 0
76 76 6 0.00245 -15.9525 -12.280241 0 0 0 0
78 78 6 9.000000000000001e-05 -14.5345 -12.280241 0 0 0 0
109 109 6 0.06941 -18.0795 -11.052217 0 0 0 0
110 110 6 -0.08649999999999999 -18.7885 -9.824192 0 0 0 0
111 111 6 0.01454 -16.6615 -11.052217 0 0 0 0
112 112 6 0.00245 -15.9525 -9.824192 0 0 0 0
113 113 6 0 -13.8255 -11.052217 0 0 0 0
114 114 6 9.000000000000001e-05 -14.5345 -9.824192 0 0 0 0
145 145 6 0.06941 -18.0795 -8.596169 0 0 0 0
146 146 6 -0.08649999999999999 -18.7885 -7.368144 0 0 0 0
147 147 6 0.01454 -16.6615 -8.596169 0 0 0 0
148 148 6 0.00245 -15.9525 -7.368144 0 0 0 0
149 149 6 0 -13.8255 -8.596169 0 0 0 0
150 150 6 9.000000000000001e-05 -14.5345 -7.368144 0 0 0 0
613 613 6 0.06944 -17.3705 -12.280241 3.35 0 0 0
614 614 6 -0.08649999999999999 -18.0795 -11.052217 3.35 0 0 0
615 615 6 0.01457 -15.9525 -12.280241 3.35 0 0 0
616 616 6 0.00245 -15.2435 -11.052217 3.35 0 0 0
618 618 6 9.000000000000001e-05 -13.8255 -11.052217 3.35 0 0 0
649 649 6 0.06941 -17.3705 -9.824192 3.35 0 0 0
650 650 6 -0.08649999999999999 -18.0795 -8.596169 3.35 0 0 0
651 651 6 0.01454 -15.9525 -9.824192 3.35 0 0 0
652 652 6 0.00245 -15.2435 -8.596169 3.35 0 0 0
654 654 6 9.000000000000001e-05 -13.8255 -8.596169 3.35 0 0 0
685 685 6 0.06941 -17.3705 -7.368144 3.35 0 0 0
687 687 6 0.01454 -15.9525 -7.368144 3.35 0 0 0
80 80 6 0 -11.6985 -12.280241 0 0 0 0
82 82 6 0 -10.2805 -12.280241 0 0 0 0
84 84 6 0 -7.4445 -12.280241 0 0 0 0
115 115 6 0 -12.4075 -11.052217 0 0 0 0
116 116 6 0 -11.6985 -9.824192 0 0 0 0
117 117 6 0 -9.5715 -11.052217 0 0 0 0
118 118 6 0 -10.2805 -9.824192 0 0 0 0
119 119 6 0 -8.1535 -11.052217 0 0 0 0
120 120 6 0 -7.4445 -9.824192 0 0 0 0
151 151 6 0 -12.4075 -8.596169 0 0 0 0
152 152 6 0 -11.6985 -7.368144 0 0 0 0
153 153 6 0 -9.5715 -8.596169 0 0 0 0
154 154 6 0 -10.2805 -7.368144 0 0 0 0
155 155 6 0 -8.1535 -8.596169 0 0 0 0
156 156 6 0 -7.4445 -7.368144 0 0 0 0
617 617 6 3e-05 -13.1165 -12.280241 3.35 0 0 0
619 619 6 2e-05 -11.6985 -12.280241 3.35 0 0 0
620 620 6 0 -10.9895 -11.052217 3.35 0 0 0
621 621 6 2e-05 -8.8625 -12.280241 3.35 0 0 0
622 622 6 0 -9.5715 -11.052217 3.35 0 0 0
623 623 6 2e-05 -7.4445 -12.280241 3.35 0 0 0
653 653 6 0 -13.1165 -9.824192 3.35 0 0 0
655 655 6 0 -11.6985 -9.824192 3.35 0 0 0
656 656 6 0 -10.9895 -8.596169 3.35 0 0 0
657 657 6 0 -8.8625 -9.824192 3.35 0 0 0
658 658 6 0 -9.5715 -8.596169 3.35 0 0 0
659 659 6 0 -7.4445 -9.824192 3.35 0 0 0
689 689 6 0 -13.1165 -7.368144 3.35 0 0 0
691 691 6 0 -11.6985 -7.368144 3.35 0 0 0
693 693 6 0 -8.8625 -7.368144 3.35 0 0 0
695 695 6 0 -7.4445 -7.368144 3.35 0 0 0
86 86 6 0 -6.0265 -12.280241 0 0 0 0
88 88 6 0 -3.1905 -12.280241 0 0 0 0
90 90 6 0 -1.772501 -12.280241 0 0 0 0
121 121 6 0 -5.3175 -11.052217 0 0 0 0
122 122 6 0 -6.0265 -9.824192 0 0 0 0
123 123 6 0 -3.8995 -11.052217 0 0 0 0
124 124 6 0 -3.1905 -9.824192 0 0 0 0
125 125 6 0 -1.063499 -11.052217 0 0 0 0
126 126 6 0 -1.772501 -9.824192 0 0 0 0
157 157 6 0 -5.3175 -8.596169 0 0 0 0
158 158 6 0 -6.0265 -7.368144 0 0 0 0
159 159 6 0 -3.8995 -8.596169 0 0 0 0
160 160 6 0 -3.1905 -7.368144 0 0 0 0
161 161 6 0 -1.063499 -8.596169 0 0 0 0
162 162 6 0 -1.772501 -7.368144 0 0 0 0
624 624 6 0 -6.7355 -11.052217 3.35 0 0 0
625 625 6 2e-05 -4.6085 -12.280241 3.35 0 0 0
626 626 6 0 -5.3175 -11.052217 3.35 0 0 0
627 627 6 2e-05 -3.1905 -12.280241 3.35 0 0 0
628 628 6 0 -2.4815 -11.052217 3.35 0 0 0
629 629 6 2e-05 -0.3545 -12.280241 3.35 0 0 0
630 630 6 0 -1.063499 -11.052217 3.35 0 0 0
660 660 6 0 -6.7355 -8.596169 3.35 0 0 0
661 661 6 0 -4.6085 -9.824192 3.35 0 0 0
662 662 6 0 -5.3175 -8.596169 3.35 0 0 0
663 663 6 0 -3.1905 -9.824192 3.35 0 0 0
664 664 6 0 -2.4815 -8.596169 3.35 0 0 0
665 665 6 0 -0.3545 -9.824192 3.35 0 0 0
666 666 6 0 -1.063499 -8.596169 3.35 0 0 0
697 697 6 0 -4.6085 -7.368144 3.35 0 0 0
699 699 6 0 -3.1905 -7.368144 3.35 0 0 0
701 701 6 0 -0.3545 -7.368144 3.35 0 0 0
92 92 6 0 1.0635 -12.280241 0 0 0 0
94 94 6 0 2.481501 -12.280241 0 0 0 0
96 96 6 0 5.317499 -12.280241 0 0 0 0
98 98 6 0 6.735501 -12.280241 0 0 0 0
127 127 6 0 0.3545 -11.052217 0 0 0 0
128 128 6 0 1.0635 -9.824192 0 0 0 0
129 129 6 0 3.1905 -11.052217 0 0 0 0
130 130 6 0 2.481501 -9.824192 0 0 0 0
131 131 6 0 4.6085 -11.052217 0 0 0 0
132 132 6 0 5.317499 -9.824192 0 0 0 0
134 134 6 0 6.735501 -9.824192 0 0 0 0
163 163 6 0 0.3545 -8.596169 0 0 0 0
164 164 6 0 1.0635 -7.368144 0 0 0 0
165 165 6 0 3.1905 -8.596169 0 0 0 0
166 166 6 0 2.481501 -7.368144 0 0 0 0
167 167 6 0 4.6085 -8.596169 0 0 0 0
168 168 6 0 5.317499 -7.368144 0 0 0 0
170 170 6 0 6.735501 -7.368144 0 0 0 0
631 631 6 2e-05 1.0635 -12.280241 3.35 0 0 0
632 632 6 0 1.772499 -11.052217 3.35 0 0 0
633 633 6 2e-05 3.8995 -12.280241 3.35 0 0 0
634 634 6 0 3.1905 -11.052217 3.35 0 0 0
635 635 6 2e-05 5.317499 -12.280241 3.35 0 0 0
636 636 6 0 6.026501 -11.052217 3.35 0 0 0
667 667 6 0 1.0635 -9.824192 3.35 0 0 0
668 668 6 0 1.772499 -8.596169 3.35 0 0 0
669 669 6 0 3.8995 -9.824192 3.35 0 0 0
670 670 6 0 3.1905 -8.596169 3.35 0 0 0
671 671 6 0 5.317499 -9.824192 3.35 0 0 0
672 672 6 0 6.026501 -8.596169 3.35 0 0 0
703 703 6 0 1.0635 -7.368144 3.35 0 0 0
705 705 6 0 3.8995 -7.368144 3.35 0 0 0
707 707 6 0 5.317499 -7.368144 3.35 0 0 0
100 100 6 0 9.571499 -12.280241 0 0 0 0
102 102 6 0 10.9895 -12.280241 0 0 0 0
133 133 6 0 7.4445 -11.052217 0 0 0 0
135 135 6 0 8.862499 -11.052217 0 0 0 0
136 136 6 0 9.571499 -9.824192 0 0 0 0
137 137 6 0 11.6985 -11.052217 0 0 0 0
138 138 6 0 10.9895 -9.824192 0 0 0 0
139 139 6 0 13.116499 -11.052217 0 0 0 0
169 169 6 0 7.4445 -8.596169 0 0 0 0
171 171 6 0 8.862499 -8.596169 0 0 0 0
172 172 6 0 9.571499 -7.368144 0 0 0 0
173 173 6 0 11.6985 -8.596169 0 0 0 0
174 174 6 0 10.9895 -7.368144 0 0 0 0
175 175 6 0 13.116499 -8.596169 0 0 0 0
637 637 6 2e-05 8.1535 -12.280241 3.35 0 0 0
638 638 6 0 7.4445 -11.052217 3.35 0 0 0
639 639 6 2e-05 9.571499 -12.280241 3.35 0 0 0
640 640 6 0 10.280501 -11.052217 3.35 0 0 0
641 641 6 2e-05 12.4075 -12.280241 3.35 0 0 0
642 642 6 0 11.6985 -11.052217 3.35 0 0 0
673 673 6 0 8.1535 -9.824192 3.35 0 0 0
674 674 6 0 7.4445 -8.596169 3.35 0 0 0
675 675 6 0 9.571499 -9.824192 3.35 0 0 0
676 676 6 0 10.280501 -8.596169 3.35 0 0 0
677 677 6 0 12.4075 -9.824192 3.35 0 0 0
678 678 6 0 11.6985 -8.596169 3.35 0 0 0
709 709 6 0 8.1535 -7.368144 3.35 0 0 0
711 711 6 0 9.571499 -7.368144 3.35 0 0 0
713 713 6 0 12.4075 -7.368144 3.35 0 0 0
104 104 6 9.000000000000001e-05 13.825501 -12.280241 0 0 0 0
106 106 6 0.00245 15.243502 -12.280241 0 0 0 0
108 108 6 -0.08649999999999999 18.0795 -12.280241 0 0 0 0
140 140 6 9.000000000000001e-05 13.825501 -9.824192 0 0 0 0
141 141 6 0.01454 15.952501 -11.052217 0 0 0 0
142 142 6 0.00245 15.243502 -9.824192 0 0 0 0
143 143 6 0.06941 17.370501 -11.052217 0 0 0 0
144 144 6 -0.08649999999999999 18.0795 -9.824192 0 0 0 0
176 176 6 9.000000000000001e-05 13.825501 -7.368144 0 0 0 0
177 177 6 0.01454 15.952501 -8.596169 0 0 0 0
178 178 6 0.00245 15.243502 -7.368144 0 0 0 0
179 179 6 0.06941 17.370501 -8.596169 0 0 0 0
180 180 6 -0.08649999999999999 18.0795 -7.368144 0 0 0 0
643 643 6 3e-05 13.825501 -12.280241 3.35 0 0 0
644 644 6 9.000000000000001e-05 14.534498 -11.052217 3.35 0 0 0
645 645 6 0.01457 16.661501 -12.280241 3.35 0 0 0
646 646 6 0.00245 15.952501 -11.052217 3.35 0 0 0
647 647 6 0.06944 18.0795 -12.280241 3.35 0 0 0
648 648 6 -0.08649999999999999 18.7885 -11.052217 3.35 0 0 0
679 679 6 0 13.825501 -9.824192 3.35 0 0 0
680 680 6 9.000000000000001e-05 14.534498 -8.596169 3.35 0 0 0
681 681 6 0.01454 16.661501 -9.824192 3.35 0 0 0
682 682 6 0.00245 15.952501 -8.596169 3.35 0 0 0
683 683 6 0.06941 18.0795 -9.824192 3.35 0 0 0
684 684 6 -0.08649999999999999 18.7885 -8.596169 3.35 0 0 0
715 715 6 0 13.825501 -7.368144 3.35 0 0 0
717 717 6 0.01454 16.661501 -7.368144 3.35 0 0 0
719 719 6 0.06941 18.0795 -7.368144 3.35 0 0 0
181 181 6 0.06941 -18.0795 -6.140121 0 0 0 0
182 182 6 -0.08649999999999999 -18.7885 -4.912096 0 0 0 0
183 183 6 0.01454 -16.6615 -6.140121 0 0 0 0
184 184 6 0.00245 -15.9525 -4.912096 0 0 0 0
185 185 6 0 -13.8255 -6.140121 0 0 0 0
186 186 6 9.000000000000001e-05 -14.5345 -4.912096 0 0 0 0
217 217 6 0.06941 -18.0795 -3.684073 0 0 0 0
218 218 6 -0.08649999999999999 -18.7885 -2.456048 0 0 0 0
219 219 6 0.01454 -16.6615 -3.684073 0 0 0 0
220 220 6 0.00245 -15.9525 -2.456048 0 0 0 0
221 221 6 0 -13.8255 -3.684073 0 0 0 0
222 222 6 9.000000000000001e-05 -14.5345 -2.456048 0 0 0 0
253 253 6 0.06941 -18.0795 -1.228024 0 0 0 0
255 255 6 0.01454 -16.6615 -1.228024 0 0 0 0
257 257 6 0 -13.8255 -1.228024 0 0 0 0
686 686 6 -0.08649999999999999 -18.0795 -6.140121 3.35 0 0 0
688 688 6 0.00245 -15.2435 -6.140121 3.35 0 0 0
690 690 6 9.000000000000001e-05 -13.8255 -6.140121 3.35 0 0 0
721 721 6 0.06941 -17.3705 -4.912096 3.35 0 0 0
722 722 6 -0.08649999999999999 -18.0795 -3.684073 3.35 0 0 0
723 723 6 0.01454 -15.9525 -4.912096 3.35 0 0 0
724 724 6 0.00245 -15.2435 -3.684073 3.35 0 0 0
726 726 6 9.000000000000001e-05 -13.8255 -3.684073 3.35 0 0 0
757 757 6 0.06941 -17.3705 -2.456048 3.35 0 0 0
758 758 6 -0.08649999999999999 -18.0795 -1.228024 3.35 0 0 0
759 759 6 0.01454 -15.9525 -2.456048 3.35 0 0 0
760 760 6 0.00245 -15.2435 -1.228024 3.35 0 0 0
762 762 6 9.000000000000001e-05 -13.8255 -1.228024 3.35 0 0 0
187 187 6 0 -12.4075 -6.140121 0 0 0 0
188 188 6 0 -11.6985 -4.912096 0 0 0 0
189 189 6 0 -9.5715 -6.140121 0 0 0 0
190 190 6 0 -10.2805 -4.912096 0 0 0 0
191 191 6 0 -8.1535 -6.140121 0 0 0 0
192 192 6 0 -7.4445 -4.912096 0 0 0 0
223 223 6 0 -12.4075 -3.684073 0 0 0 0
224 224 6 0 -11.6985 -2.456048 0 0 0 0
225 225 6 0 -9.5715 -3.684073 0 0 0 0
226 226 6 0 -10.2805 -2.456048 0 0 0 0
227 227 6 0 -8.1535 -3.684073 0 0 0 0
228 228 6 0 -7.4445 -2.456048 0 0 0 0
259 259 6 0 -12.4075 -1.228024 0 0 0 0
261 261 6 0 -9.5715 -1.228024 0 0 0 0
263 263 6 0 -8.1535 -1.228024 0 0 0 0
692 692 6 0 -10.9895 -6.140121 3.35 0 0 0
694 694 6 0 -9.5715 -6.140121 3.35 0 0 0
725 725 6 0 -13.1165 -4.912096 3.35 0 0 0
727 727 6 0 -11.6985 -4.912096 3.35 0 0 0
728 728 6 0 -10.9895 -3.684073 3.35 0 0 0
729 729 6 0 -8.8625 -4.912096 3.35 0 0 0
730 730 6 0 -9.5715 -3.684073 3.35 0 0 0
731 731 6 0 -7.4445 -4.912096 3.35 0 0 0
761 761 6 0 -13.1165 -2.456048 3.35 0 0 0
763 763 6 0 -11.6985 -2.456048 3.35 0 0 0
764 764 6 0 -10.9895 -1.228024 3.35 0 0 0
765 765 6 0 -8.8625 -2.456048 3.35 0 0 0
766 766 6 0 -9.5715 -1.228024 3.35 0 0 0
767 767 6 0 -7.4445 -2.456048 3.35 0 0 0
193 193 6 0 -5.3175 -6.140121 0 0 0 0
194 194 6 0 -6.0265 -4.912096 0 0 0 0
195 195 6 0 -3.8995 -6.140121 0 0 0 0
196 196 6 0 -3.1905 -4.912096 0 0 0 0
197 197 6 0 -1.063499 -6.140121 0 0 0 0
198 198 6 0 -1.772501 -4.912096 0 0 0 0
229 229 6 0 -5.3175 -3.684073 0 0 0 0
230 230 6 0 -6.0265 -2.456048 0 0 0 0
231 231 6 0 -3.8995 -3.684073 0 0 0 0
232 232 6 0 -3.1905 -2.456048 0 0 0 0
233 233 6 0 -1.063499 -3.684073 0 0 0 0
234 234 6 0 -1.772501 -2.456048 0 0 0 0
265 265 6 0 -5.3175 -1.228024 0 0 0 0
267 267 6 0 -3.8995 -1.228024 0 0 0 0
269 269 6 0 -1.063499 -1.228024 0 0 0 0
696 696 6 0 -6.7355 -6.140121 3.35 0 0 0
698 698 6 0 -5.3175 -6.140121 3.35 0 0 0
700 700 6 0 -2.4815 -6.140121 3.35 0 0 0
702 702 6 0 -1.063499 -6.140121 3.35 0 0 0
732 732 6 0 -6.7355 -3.684073 3.35 0 0 0
733 733 6 0 -4.6085 -4.912096 3.35 0 0 0
734 734 6 0 -5.3175 -3.684073 3.35 0 0 0
735 735 6 0 -3.1905 -4.912096 3.35 0 0 0
736 736 6 0 -2.4815 -3.684073 3.35 0 0 0
737 737 6 0 -0.3545 -4.912096 3.35 0 0 0
738 738 6 0 -1.063499 -3.684073 3.35 0 0 0
768 768 6 0 -6.7355 -1.228024 3.35 0 0 0
769 769 6 0 -4.6085 -2.456048 3.35 0 0 0
770 770 6 0 -5.3175 -1.228024 3.35 0 0 0
771 771 6 0 -3.1905 -2.456048 3.35 0 0 0
772 772 6 0 -2.4815 -1.228024 3.35 0 0 0
773 773 6 0 -0.3545 -2.456048 3.35 0 0 0
774 774 6 0 -1.063499 -1.228024 3.35 0 0 0
199 199 6 0 0.3545 -6.140121 0 0 0 0
200 200 6 0 1.0635 -4.912096 0 0 0 0
201 201 6 0 3.1905 -6.140121 0 0 0 0
202 202 6 0 2.481501 -4.912096 0 0 0 0
203 203 6 0 4.6085 -6.140121 0 0 0 0
204 204 6 0 5.317499 -4.912096 0 0 0 0
206 206 6 0 6.735501 -4.912096 0 0 0 0
235 235 6 0 0.3545 -3.684073 0 0 0 0
236 236 6 0 1.0635 -2.456048 0 0 0 0
237 237 6 0 3.1905 -3.684073 0 0 0 0
238 238 6 0 2.481501 -2.456048 0 0 0 0
239 239 6 0 4.6085 -3.684073 0 0 0 0
240 240 6 0 5.317499 -2.456048 0 0 0 0
242 242 6 0 6.735501 -2.456048 0 0 0 0
271 271 6 0 0.3545 -1.228024 0 0 0 0
273 273 6 0 3.1905 -1.228024 0 0 0 0
275 275 6 0 4.6085 -1.228024 0 0 0 0
704 704 6 0 1.772499 -6.140121 3.35 0 0 0
706 706 6 0 3.1905 -6.140121 3.35 0 0 0
708 708 6 0 6.026501 -6.140121 3.35 0 0 0
739 739 6 0 1.0635 -4.912096 3.35 0 0 0
740 740 6 0 1.772499 -3.684073 3.35 0 0 0
741 741 6 0 3.8995 -4.912096 3.35 0 0 0
742 742 6 0 3.1905 -3.684073 3.35 0 0 0
743 743 6 0 5.317499 -4.912096 3.35 0 0 0
744 744 6 0 6.026501 -3.684073 3.35 0 0 0
775 775 6 0 1.0635 -2.456048 3.35 0 0 0
776 776 6 0 1.772499 -1.228024 3.35 0 0 0
777 777 6 0 3.8995 -2.456048 3.35 0 0 0
778 778 6 0 3.1905 -1.228024 3.35 0 0 0
779 779 6 0 5.317499 -2.456048 3.35 0 0 0
780 780 6 0 6.026501 -1.228024 3.35 0 0 0
205 205 6 0 7.4445 -6.140121 0 0 0 0
207 207 6 0 8.862499 -6.140121 0 0 0 0
208 208 6 0 9.571499 -4.912096 0 0 0 0
209 209 6 0 11.6985 -6.140121 0 0 0 0
210 210 6 0 10.9895 -4.912096 0 0 0 0
211 211 6 0 13.116499 -6.140121 0 0 0 0
241 241 6 0 7.4445 -3.684073 0 0 0 0
243 243 6 0 8.862499 -3.684073 0 0 0 0
244 244 6 0 9.571499 -2.456048 0 0 0 0
245 245 6 0 11.6985 -3.684073 0 0 0 0
246 246 6 0 10.9895 -2.456048 0 0 0 0
247 247 6 0 13.116499 -3.684073 0 0 0 0
277 277 6 0 7.4445 -1.228024 0 0 0 0
279 279 6 0 8.862499 -1.228024 0 0 0 0
281 281 6 0 11.6985 -1.228024 0 0 0 0
283 283 6 0 13.116499 -1.228024 0 0 0 0
710 710 6 0 7.4445 -6.140121 3.35 0 0 0
712 712 6 0 10.280501 -6.140121 3.35 0 0 0
714 714 6 0 11.6985 -6.140121 3.35 0 0 0
745 745 6 0 8.1535 -4.912096 3.35 0 0 0
746 746 6 0 7.4445 -3.684073 3.35 0 0 0
747 747 6 0 9.571499 -4.912096 3.35 0 0 0
748 748 6 0 10.280501 -3.684073 3.35 0 0 0
749 749 6 0 12.4075 -4.912096 3.35 0 0 0
750 750 6 0 11.6985 -3.684073 3.35 0 0 0
781 781 6 0 8.1535 -2.456048 3.35 0 0 0
782 782 6 0 7.4445 -1.228024 3.35 0 0 0
783 783 6 0 9.571499 -2.456048 3.35 0 0 0
784 784 6 0 10.280501 -1.228024 3.35 0 0 0
785 785 6 0 12.4075 -2.456048 3.35 0 0 0
786 786 6 0 11.6985 -1.228024 3.35 0 0 0
212 212 6 9.000000000000001e-05 13.825501 -4.912096 0 0 0 0
213 213 6 0.01454 15.952501 -6.140121 0 0 0 0
214 214 6 0.00245 15.243502 -4.912096 0 0 0 0
215 215 6 0.06941 17.370501 -6.140121 0 0 0 0
216 216 6 -0.08649999999999999 18.0795 -4.912096 0 0 0 0
248 248 6 9.000000000000001e-05 13.825501 -2.456048 0 0 0 0
249 249 6 0.01454 15.952501 -3.684073 0 0 0 0
250 250 6 0.00245 15.243502 -2.456048 0 0 0 0
251 251 6 0.06941 17.370501 -3.684073 0 0 0 0
252 252 6 -0.08649999999999999 18.0795 -2.456048 0 0 0 0
285 285 6 0.01454 15.952501 -1.228024 0 0 0 0
287 287 6 0.06941 17.370501 -1.228024 0 0 0 0
716 716 6 9.000000000000001e-05 14.534498 -6.140121 3.35 0 0 0
718 718 6 0.00245 15.952501 -6.140121 3.35 0 0 0
720 720 6 -0.08649999999999999 18.7885 -6.140121 3.35 0 0 0
751 751 6 0 13.825501 -4.912096 3.35 0 0 0
752 752 6 9.000000000000001e-05 14.534498 -3.684073 3.35 0 0 0
753 753 6 0.01454 16.661501 -4.912096 3.35 0 0 0
754 754 6 0.00245 15.952501 -3.684073 3.35 0 0 0
755 755 6 0.06941 18.0795 -4.912096 3.35 0 0 0
756 756 6 -0.08649999999999999 18.7885 -3.684073 3.35 0 0 0
787 787 6 0 13.825501 -2.456048 3.35 0 0 0
788 788 6 9.000000000000001e-05 14.534498 -1.228024 3.35 0 0 0
789 789 6 0.01454 16.661501 -2.456048 3.35 0 0 0
790 790 6 0.00245 15.952501 -1.228024 3.35 0 0 0
791 791 6 0.06941 18.0795 -2.456048 3.35 0 0 0
792 792 6 -0.08649999999999999 18.7885 -1.228024 3.35 0 0 0
254 254 6 -0.08649999999999999 -18.7885 0 0 0 0 0
256 256 6 0.00245 -15.9525 0 0 0 0 0
258 258 6 9.000000000000001e-05 -14.5345 0 0 0 0 0
289 289 6 0.06941 -18.0795 1.228023 0 0 0 0
290 290 6 -0.08649999999999999 -18.7885 2.456047 0 0 0 0
291 291 6 0.01454 -16.6615 1.228023 0 0 0 0
292 292 6 0.00245 -15.9525 2.456047 0 0 0 0
293 293 6 0 -13.8255 1.228023 0 0 0 0
294 294 6 9.000000000000001e-05 -14.5345 2.456047 0 0 0 0
325 325 6 0.06941 -18.0795 3.684072 0 0 0 0
326 326 6 -0.08649999999999999 -18.7885 4.912096 0 0 0 0
327 327 6 0.01454 -16.6615 3.684072 0 0 0 0
328 328 6 0.00245 -15.9525 4.912096 0 0 0 0
329 329 6 0 -13.8255 3.684072 0 0 0 0
330 330 6 9.000000000000001e-05 -14.5345 4.912096 0 0 0 0
361 361 6 0.06941 -18.0795 6.140119 0 0 0 0
363 363 6 0.01454 -16.6615 6.140119 0 0 0 0
365 365 6 0 -13.8255 6.140119 0 0 0 0
793 793 6 0.06941 -17.3705 0 3.35 0 0 0
794 794 6 -0.08649999999999999 -18.0795 1.228023 3.35 0 0 0
795 795 6 0.01454 -15.9525 0 3.35 0 0 0
796 796 6 0.00245 -15.2435 1.228023 3.35 0 0 0
798 798 6 9.000000000000001e-05 -13.8255 1.228023 3.35 0 0 0
829 829 6 0.06941 -17.3705 2.456047 3.35 0 0 0
830 830 6 -0.08649999999999999 -18.0795 3.684072 3.35 0 0 0
831 831 6 0.01454 -15.9525 2.456047 3.35 0 0 0
832 832 6 0.00245 -15.2435 3.684072 3.35 0 0 0
834 834 6 9.000000000000001e-05 -13.8255 3.684072 3.35 0 0 0
865 865 6 0.06941 -17.3705 4.912096 3.35 0 0 0
866 866 6 -0.08649999999999999 -18.0795 6.140119 3.35 0 0 0
867 867 6 0.01454 -15.9525 4.912096 3.35 0 0 0
868 868 6 0.00245 -15.2435 6.140119 3.35 0 0 0
870 870 6 9.000000000000001e-05 -13.8255 6.140119 3.35 0 0 0
260 260 6 0 -11.6985 0 0 0 0 0
262 262 6 0 -10.2805 0 0 0 0 0
264 264 6 0 -7.4445 0 0 0 0 0
295 295 6 0 -12.4075 1.228023 0 0 0 0
296 296 6 0 -11.6985 2.456047 0 0 0 0
297 297 6 0 -9.5715 1.228023 0 0 0 0
298 298 6 0 -10.2805 2.456047 0 0 0 0
299 299 6 0 -8.1535 1.228023 0 0 0 0
300 300 6 0 -7.4445 2.456047 0 0 0 0
331 331 6 0 -12.4075 3.684072 0 0 0 0
332 332 6 0 -11.6985 4.912096 0 0 0 0
333 333 6 0 -9.5715 3.684072 0 0 0 0
334 334 6 0 -10.2805 4.912096 0 0 0 0
335 335 6 0 -8.1535 3.684072 0 0 0 0
336 336 6 0 -7.4445 4.912096 0 0 0 0
367 367 6 0 -12.4075 6.140119 0 0 0 0
369 369 6 0 -9.5715 6.140119 0 0 0 0
371 371 6 0 -8.1535 6.140119 0 0 0 0
797 797 6 0 -13.1165 0 3.35 0 0 0
799 799 6 0 -11.6985 0 3.35 0 0 0
800 800 6 0 -10.9895 1.228023 3.35 0 0 0
801 801 6 0 -8.8625 0 3.35 0 0 0
802 802 6 0 -9.5715 1.228023 3.35 0 0 0
803 803 6 0 -7.4445 0 3.35 0 0 0
833 833 6 0 -13.1165 2.456047 3.35 0 0 0
835 835 6 0 -11.6985 2.456047 3.35 0 0 0
836 836 6 0 -10.9895 3.684072 3.35 0 0 0
837 837 6 0 -8.8625 2.456047 3.35 0 0 0
838 838 6 0 -9.5715 3.684072 3.35 0 0 0
839 839 6 0 -7.4445 2.456047 3.35 0 0 0
869 869 6 0 -13.1165 4.912096 3.35 0 0 0
871 871 6 0 -11.6985 4.912096 3.35 0 0 0
872 872 6 0 -10.9895 6.140119 3.35 0 0 0
873 873 6 0 -8.8625 4.912096 3.35 0 0 0
874 874 6 0 -9.5715 6.140119 3.35 0 0 0
875 875 6 0 -7.4445 4.912096 3.35 0 0 0
266 266 6 0 -6.0265 0 0 0 0 0
268 268 6 0 -3.1905 0 0 0 0 0
270 270 6 0 -1.772501 0 0 0 0 0
301 301 6 0 -5.3175 1.228023 0 0 0 0
302 302 6 0 -6.0265 2.456047 0 0 0 0
303 303 6 0 -3.8995 1.228023 0 0 0 0
304 304 6 0 -3.1905 2.456047 0 0 0 0
305 305 6 0 -1.063499 1.228023 0 0 0 0
306 306 6 0 -1.772501 2.456047 0 0 0 0
337 337 6 0 -5.3175 3.684072 0 0 0 0
338 338 6 0 -6.0265 4.912096 0 0 0 0
339 339 6 0 -3.8995 3.684072 0 0 0 0
340 340 6 0 -3.1905 4.912096 0 0 0 0
341 341 6 0 -1.063499 3.684072 0 0 0 0
342 342 6 0 -1.772501 4.912096 0 0 0 0
373 373 6 0 -5.3175 6.140119 0 0 0 0
375 375 6 0 -3.8995 6.140119 0 0 0 0
377 377 6 0 -1.063499 6.140119 0 0 0 0
804 804 6 0 -6.7355 1.228023 3.35 0 0 0
805 805 6 0 -4.6085 0 3.35 0 0 0
806 806 6 0 -5.3175 1.228023 3.35 0 0 0
807 807 6 0 -3.1905 0 3.35 0 0 0
808 808 6 0 -2.4815 1.228023 3.35 0 0 0
809 809 6 0 -0.3545 0 3.35 0 0 0
810 810 6 0 -1.063499 1.228023 3.35 0 0 0
840 840 6 0 -6.7355 3.684072 3.35 0 0 0
841 841 6 0 -4.6085 2.456047 3.35 0 0 0
842 842 6 0 -5.3175 3.684072 3.35 0 0 0
843 843 6 0 -3.1905 2.456047 3.35 0 0 0
844 844 6 0 -2.4815 3.684072 3.35 0 0 0
845 845 6 0 -0.3545 2.456047 3.35 0 0 0
846 846 6 0 -1.063499 3.684072 3.35 0 0 0
876 876 6 0 -6.7355 6.140119 3.35 0 0 0
877 877 6 0 -4.6085 4.912096 3.35 0 0 0
878 878 6 0 -5.3175 6.140119 3.35 0 0 0
879 879 6 0 -3.1905 4.912096 3.35 0 0 0
880 880 6 0 -2.4815 6.140119 3.35 0 0 0
881 881 6 0 -0.3545 4.912096 3.35 0 0 0
882 882 6 0 -1.063499 6.140119 3.35 0 0 0
272 272 6 0 1.0635 0 0 0 0 0
274 274 6 0 2.481501 0 0 0 0 0
276 276 6 0 5.317499 0 0 0 0 0
278 278 6 0 6.735501 0 0 0 0 0
307 307 6 0 0.3545 1.228023 0 0 0 0
308 308 6 0 1.0635 2.456047 0 0 0 0
309 309 6 0 3.1905 1.228023 0 0 0 0
310 310 6 0 2.481501 2.456047 0 0 0 0
311 311 6 0 4.6085 1.228023 0 0 0 0
312 312 6 0 5.317499 2.456047 0 0 0 0
314 314 6 0 6.735501 2.456047 0 0 0 0
343 343 6 0 0.3545 3.684072 0 0 0 0
344 344 6 0 1.0635 4.912096 0 0 0 0
345 345 6 0 3.1905 3.684072 0 0 0 0
346 346 6 0 2.481501 4.912096 0 0 0 0
347 347 6 0 4.6085 3.684072 0 0 0 0
348 348 6 0 5.317499 4.912096 0 0 0 0
350 350 6 0 6.735501 4.912096 0 0 0 0
379 379 6 0 0.3545 6.140119 0 0 0 0
381 381 6 0 3.1905 6.140119 0 0 0 0
383 383 6 0 4.6085 6.140119 0 0 0 0
811 811 6 0 1.0635 0 3.35 0 0 0
812 812 6 0 1.772499 1.228023 3.35 0 0 0
813 813 6 0 3.8995 0 3.35 0 0 0
814 814 6 0 3.1905 1.228023 3.35 0 0 0
815 815 6 0 5.317499 0 3.35 0 0 0
816 816 6 0 6.026501 1.228023 3.35 0 0 0
847 847 6 0 1.0635 2.456047 3.35 0 0 0
848 848 6 0 1.772499 3.684072 3.35 0 0 0
849 849 6 0 3.8995 2.456047 3.35 0 0 0
850 850 6 0 3.1905 3.684072 3.35 0 0 0
851 851 6 0 5.317499 2.456047 3.35 0 0 0