ITEM: TIMESTEP
0
ITEM: NUMBER OF ATOMS
498
ITEM: BOX BOUNDS pp pp pp
-1.0000000000000000e+02 1.0000000000000000e+02
-1.0000000000000000e+02 1.0000000000000000e+02
-1.0000000000000000e+02 1.0000000000000000e+02
ITEM: ATOMS id element xs ys zs
263 F 0.556794 0.507366 0.392976
201 F 0.540825 0.500937 0.420273
13 F 0.534647 0.512991 0.419852
225 F 0.543276 0.507095 0.408387
231 F 0.546724 0.496437 0.408857
450 C 0.571276 0.493861 0.405652
290 F 0.57288 0.49653 0.411791
297 F 0.567536 0.48787 0.406633
177 F 0.56123 0.498723 0.423424
458 O 0.551366 0.503486 0.416044
415 C 0.548914 0.502932 0.409241
466 O 0.560012 0.499661 0.405383
442 C 0.566749 0.499532 0.40243
274 F 0.56629 0.498856 0.395566
282 F 0.569777 0.505549 0.403428
425 C 0.554873 0.504613 0.404263
257 F 0.54856 0.498984 0.394808
433 C 0.551798 0.504775 0.397117
239 F 0.557617 0.510852 0.406146
250 F 0.546841 0.509786 0.396531
399 C 0.546916 0.503585 0.422076
489 O 0.577202 0.486733 0.394786
498 S 0.578856 0.491741 0.401364
471 O 0.583362 0.487914 0.406869
481 O 0.583027 0.498404 0.399912
213 F 0.547992 0.515413 0.419889
108 F 0.514802 0.494363 0.446549
87 F 0.505237 0.505608 0.44617
340 C 0.512016 0.506068 0.447251
73 F 0.51309 0.504068 0.435499
74 F 0.512944 0.514982 0.438871
353 C 0.51426 0.499631 0.450901
95 F 0.511814 0.511101 0.451834
332 C 0.51526 0.508468 0.440454
47 F 0.523695 0.50984 0.428335
319 C 0.526966 0.512052 0.433814
58 F 0.525433 0.50291 0.441243
324 C 0.522996 0.509117 0.439929
28 F 0.534931 0.503359 0.432153
307 C 0.534487 0.510133 0.432191
50 F 0.52587 0.512402 0.445264
22 F 0.537753 0.512518 0.437726
306 C 0.538035 0.513533 0.42585
103 F 0.52067 0.500885 0.452986
407 C 0.545374 0.510897 0.424779
185 F 0.549621 0.49235 0.424658
140 F 0.562778 0.489132 0.445488
148 F 0.557421 0.488116 0.43367
372 C 0.561035 0.493785 0.434643
131 F 0.554138 0.495875 0.444048
192 F 0.546852 0.49853 0.432497
393 C 0.550559 0.498666 0.427248
218 F 0.54912 0.512149 0.430567
381 C 0.558141 0.499061 0.429362
164 F 0.560004 0.505138 0.431358
365 C 0.560877 0.495019 0.442359
123 F 0.561726 0.506984 0.444272
155 F 0.567224 0.492081 0.432963
356 C 0.565007 0.500962 0.445523
117 F 0.563986 0.500636 0.452327
112 F 0.573922 0.503389 0.437938
354 C 0.572551 0.502004 0.444434
89 F 0.57248 0.513135 0.449043
105 F 0.574878 0.495801 0.444779
346 C 0.5762 0.507103 0.449102
331 C 0.583994 0.507925 0.447635
81 F 0.585251 0.507756 0.440905
66 F 0.587135 0.502125 0.450578
59 F 0.594295 0.513224 0.450118
330 C 0.587793 0.514379 0.449845
40 F 0.525956 0.519083 0.434106
1 F 0.537833 0.520542 0.42641
39 F 0.580439 0.522089 0.443905
20 F 0.587768 0.533102 0.445517
312 C 0.58937 0.527692 0.449583
317 C 0.587026 0.521185 0.44581
48 F 0.590067 0.520384 0.43945
200 F 0.599139 0.540776 0.442135
402 C 0.603043 0.540956 0.447698
301 C 0.596859 0.528891 0.451212
410 C 0.599742 0.536027 0.453265
6 F 0.600586 0.525453 0.446681
122 F 0.623925 0.52701 0.451741
193 F 0.61201 0.532784 0.44495
362 C 0.629484 0.530532 0.449887
394 C 0.610854 0.539539 0.445824
380 C 0.616761 0.541907 0.450884
130 F 0.624328 0.534188 0.439718
364 C 0.627404 0.536613 0.445248
116 F 0.632942 0.5261 0.44594
139 F 0.632967 0.539472 0.442459
371 C 0.62392 0.54312 0.44791
184 F 0.611849 0.542306 0.439649
226 F 0.603484 0.553018 0.438988
242 F 0.591221 0.557132 0.444161
249 F 0.600504 0.567615 0.437993
418 C 0.603021 0.553907 0.445765
457 O 0.602481 0.547907 0.449862
426 C 0.597124 0.559023 0.447236
434 C 0.598566 0.566405 0.444566
258 F 0.603734 0.569252 0.447915
266 F 0.592895 0.570185 0.445039
289 F 0.581562 0.563248 0.45111
463 O 0.595762 0.558214 0.454352
234 F 0.608978 0.556955 0.447546
147 F 0.622725 0.547995 0.443312
154 F 0.628204 0.54623 0.452346
176 F 0.614789 0.547729 0.454335
146 F 0.509685 0.480593 0.467379
248 F 0.510297 0.47501 0.484277
183 F 0.522755 0.482155 0.47308
138 F 0.511123 0.484885 0.455385
156 F 0.503703 0.489275 0.467426
124 F 0.503852 0.496131 0.455725
373 C 0.510309 0.487563 0.467156
379 C 0.513849 0.490105 0.473733
163 F 0.513306 0.496967 0.47373
366 C 0.512765 0.48964 0.459957
359 C 0.510417 0.496725 0.457225
175 F 0.50971 0.488809 0.479147
114 F 0.511003 0.501566 0.462129
132 F 0.519674 0.490336 0.460202
191 F 0.525498 0.492395 0.471433
392 C 0.521358 0.488608 0.475232
18 F 0.537749 0.497423 0.476693
8 F 0.52604 0.504308 0.476928
34 F 0.536832 0.513192 0.479721
401 C 0.524207 0.488826 0.482586
199 F 0.53051 0.486262 0.482951
315 C 0.54024 0.50794 0.482883
304 C 0.528614 0.502475 0.482933
309 C 0.536288 0.501103 0.482447
53 F 0.548179 0.506988 0.473466
326 C 0.547597 0.50805 0.48044
68 F 0.558807 0.512867 0.480511
334 C 0.55223 0.514036 0.482902
64 F 0.550668 0.502425 0.48301
96 F 0.575753 0.504989 0.45545
86 F 0.543699 0.523037 0.48412
121 F 0.548513 0.534536 0.475113
94 F 0.548056 0.521596 0.474439
141 F 0.561462 0.539655 0.475829
360 C 0.55192 0.534785 0.481262
363 C 0.556811 0.541044 0.480711
341 C 0.549847 0.521471 0.481221
102 F 0.560259 0.526248 0.478874
352 C 0.554741 0.527412 0.48287
56 F 0.585795 0.51519 0.456259
206 F 0.594853 0.53972 0.456242
26 F 0.585757 0.529866 0.454913
12 F 0.597978 0.52475 0.456566
214 F 0.604161 0.535395 0.458405
169 F 0.616956 0.537446 0.456233
351 C 0.633588 0.532575 0.456428
106 F 0.629168 0.534701 0.461233
88 F 0.63366 0.521048 0.459233
67 F 0.634659 0.526855 0.470718
104 F 0.638103 0.537721 0.455468
97 F 0.642891 0.525167 0.455274
339 C 0.637599 0.526738 0.459441
36 F 0.650977 0.538539 0.459934
80 F 0.644616 0.521999 0.467864
333 C 0.640355 0.527285 0.466741
49 F 0.655038 0.529679 0.464059
320 C 0.651759 0.535305 0.466071
328 C 0.64473 0.533566 0.4693
60 F 0.646154 0.532291 0.475879
32 F 0.659433 0.536546 0.475709
52 F 0.640846 0.539289 0.469367
308 C 0.656875 0.5398 0.470138
300 C 0.663511 0.542245 0.466127
16 F 0.667201 0.537566 0.463352
134 F 0.553275 0.546026 0.477676
490 O 0.570572 0.563298 0.463016
149 F 0.56443 0.549308 0.484713
298 F 0.582373 0.553859 0.456232
482 O 0.580026 0.56132 0.47111
497 S 0.578833 0.564158 0.463859
447 C 0.583596 0.560516 0.457218
474 O 0.580804 0.571874 0.464708
271 F 0.592513 0.558109 0.464736
441 C 0.591289 0.561447 0.458938
279 F 0.593136 0.568 0.459293
21 F 0.653852 0.545548 0.472682
3 F 0.661413 0.546341 0.461016
17 F 0.668759 0.546112 0.469169
244 F 0.419347 0.412023 0.50783
428 C 0.42139 0.418406 0.506805
420 C 0.416881 0.423957 0.510126
260 F 0.421262 0.418207 0.499561
252 F 0.428034 0.418517 0.50883
236 F 0.411282 0.425755 0.506378
460 O 0.420843 0.429912 0.511248
276 F 0.417463 0.439437 0.508631
268 F 0.420141 0.433394 0.499703
436 C 0.42223 0.434922 0.50624
292 F 0.433202 0.432825 0.502199
444 C 0.429658 0.437332 0.505802
484 O 0.43716 0.449219 0.500715
476 O 0.426896 0.445394 0.494566
492 S 0.429664 0.445632 0.501905
468 O 0.425389 0.451535 0.505302
284 F 0.432477 0.437835 0.512016
488 O 0.532934 0.450593 0.509288
256 F 0.506663 0.478053 0.494181
265 F 0.509493 0.4674 0.491759
432 C 0.511346 0.473863 0.491269
273 F 0.530246 0.471573 0.502014
241 F 0.522539 0.470765 0.490013
417 C 0.520705 0.481765 0.493217
424 C 0.518489 0.474591 0.494281
281 F 0.523497 0.471586 0.510835
233 F 0.527127 0.483104 0.495715
440 C 0.524044 0.469365 0.504432
465 O 0.518169 0.471887 0.500999
296 F 0.52582 0.458525 0.498915
449 C 0.523517 0.461261 0.504614
480 O 0.533681 0.462565 0.514204
288 F 0.516787 0.459795 0.505197
456 O 0.51978 0.484492 0.486802
496 S 0.528424 0.45748 0.511075
486 O 0.462674 0.512107 0.495287
224 F 0.516947 0.485381 0.497818
212 F 0.517944 0.498061 0.486394
409 C 0.524479 0.496233 0.485542
11 F 0.527298 0.507981 0.487505
205 F 0.526867 0.496031 0.492239
46 F 0.54015 0.510272 0.489407
29 F 0.538738 0.497407 0.487773
77 F 0.553173 0.513482 0.489711
254 F 0.448638 0.543197 0.496179
230 F 0.453027 0.54201 0.510136
478 O 0.462389 0.520707 0.485118
470 O 0.473193 0.51979 0.492438
494 S 0.465196 0.519671 0.492626
286 F 0.466332 0.526068 0.503813
269 F 0.458567 0.534514 0.49002
438 C 0.463102 0.533178 0.495089
461 O 0.461327 0.537656 0.500249
421 C 0.459873 0.544713 0.500405
278 F 0.469688 0.534971 0.493807
294 F 0.455816 0.524228 0.500543
445 C 0.462257 0.526179 0.498315
181 F 0.477648 0.537656 0.512001
454 O 0.464628 0.544597 0.511478
70 F 0.511135 0.542165 0.50489
101 F 0.501021 0.538946 0.512554
27 F 0.536922 0.542297 0.51262
57 F 0.52374 0.538542 0.509604
323 C 0.522166 0.545278 0.509221
128 F 0.546858 0.536109 0.485815
375 C 0.56005 0.544245 0.486907
162 F 0.552975 0.540963 0.495716
111 F 0.557561 0.526623 0.488975
157 F 0.564237 0.539147 0.489473
246 F 0.452201 0.553942 0.496873
429 C 0.454157 0.547433 0.495505
414 C 0.458378 0.545915 0.508119
262 F 0.456384 0.547771 0.489135
238 F 0.465445 0.548485 0.498772
221 F 0.456951 0.552385 0.510222
173 F 0.475218 0.551938 0.512839
153 F 0.487215 0.546377 0.509635
110 F 0.500851 0.549579 0.510495
337 C 0.514425 0.546379 0.509402
75 F 0.512956 0.553058 0.507619
217 F 0.539206 0.545868 0.499324
61 F 0.524313 0.547093 0.502933
10 F 0.533252 0.55742 0.504627
299 C 0.538166 0.554139 0.508097
408 C 0.542854 0.550772 0.502819
4 F 0.541445 0.559529 0.510779
310 C 0.534772 0.548961 0.513311
198 F 0.542957 0.56072 0.49565
190 F 0.544788 0.549077 0.487774
42 F 0.524684 0.55598 0.514789
322 C 0.52671 0.549503 0.514362
382 C 0.555247 0.546497 0.492713
174 F 0.560259 0.548005 0.497145
211 F 0.547325 0.547212 0.506566
240 F 0.554169 0.569273 0.510768
223 F 0.552059 0.568927 0.496448
400 C 0.546874 0.555562 0.498227
232 F 0.56094 0.561576 0.496578
182 F 0.551836 0.556375 0.487506
416 C 0.555742 0.564382 0.500003
391 C 0.549534 0.551587 0.49212
455 O 0.552286 0.55844 0.502282
423 C 0.559018 0.567356 0.506442
464 O 0.563523 0.562446 0.509712
431 C 0.563124 0.573682 0.504522
255 F 0.568541 0.572244 0.500771
280 F 0.563004 0.552407 0.512856
247 F 0.559574 0.578832 0.502024
264 F 0.565886 0.575878 0.510379
25 F 0.39243 0.420705 0.53055
38 F 0.383417 0.420698 0.540355
220 F 0.408502 0.416977 0.515208
412 C 0.413239 0.421683 0.51656
228 F 0.417833 0.41875 0.520738
195 F 0.40533 0.421662 0.527984
15 F 0.390326 0.437493 0.525985
30 F 0.38419 0.426187 0.526422
313 C 0.389041 0.426744 0.531247
54 F 0.375158 0.432113 0.537512
63 F 0.383257 0.438697 0.537579
316 C 0.386094 0.42691 0.538465
325 C 0.381315 0.43298 0.540542
43 F 0.391773 0.426867 0.542585
302 C 0.394127 0.432426 0.528757
203 F 0.397012 0.428171 0.517928
179 F 0.417051 0.426865 0.53209
452 O 0.410248 0.427418 0.519564
208 F 0.401081 0.437664 0.520997
7 F 0.396417 0.435666 0.534126
404 C 0.39966 0.4314 0.523685
171 F 0.414749 0.439783 0.523959
396 C 0.406618 0.428029 0.52567
388 C 0.411447 0.430955 0.531204
187 F 0.408394 0.430281 0.537648
167 F 0.408061 0.442661 0.531509
383 C 0.413331 0.438613 0.530592
133 F 0.419779 0.433887 0.545055
109 F 0.410387 0.453093 0.540568
368 C 0.419475 0.440186 0.543062
158 F 0.420221 0.447979 0.53366
377 C 0.419251 0.441279 0.535225
126 F 0.407506 0.441244 0.544722
150 F 0.42491 0.437984 0.532847
144 F 0.425807 0.442133 0.544943
55 F 0.413935 0.465409 0.542574
62 F 0.405884 0.47219 0.544643
33 F 0.416813 0.480725 0.544356
473 O 0.523994 0.456406 0.517385
229 F 0.422716 0.501054 0.53777
253 F 0.41187 0.511228 0.541426
413 C 0.422626 0.501343 0.54491
189 F 0.439483 0.484867 0.539604
196 F 0.426703 0.488576 0.541076
389 C 0.437768 0.491101 0.542134
180 F 0.436922 0.495648 0.53686
159 F 0.44934 0.500585 0.537724
152 F 0.451329 0.490115 0.538171
376 C 0.450231 0.495411 0.542294
462 O 0.42637 0.512572 0.542976
100 F 0.458381 0.510644 0.54117
143 F 0.461866 0.497157 0.5418
285 F 0.426064 0.524549 0.535578
446 C 0.427943 0.524975 0.542318
485 O 0.431208 0.539341 0.541258
469 O 0.440121 0.53084 0.537458
493 S 0.434157 0.531702 0.54298
51 F 0.452905 0.52188 0.53822
65 F 0.452671 0.531795 0.541736
277 F 0.436477 0.516429 0.540855
437 C 0.430672 0.517988 0.544221
197 F 0.465638 0.533761 0.515421
327 C 0.456415 0.526076 0.542478
204 F 0.455658 0.541431 0.523026
14 F 0.45919 0.541097 0.53565
31 F 0.457903 0.528576 0.527873
321 C 0.463151 0.527838 0.539287
44 F 0.466685 0.532113 0.543599
41 F 0.467099 0.522274 0.539857
398 C 0.466614 0.540225 0.51716
390 C 0.474512 0.540811 0.517033
23 F 0.468508 0.527969 0.528562
314 C 0.463173 0.53084 0.531988
406 C 0.462643 0.542069 0.524017
188 F 0.476783 0.536922 0.522018
305 C 0.463904 0.538757 0.53114
5 F 0.470481 0.54042 0.532974
350 C 0.502833 0.54493 0.515307
92 F 0.513022 0.539565 0.519029
145 F 0.490137 0.537629 0.519522
118 F 0.501221 0.542601 0.526727
370 C 0.490661 0.544465 0.521148
345 C 0.510872 0.545317 0.516039
137 F 0.48819 0.545392 0.527639
210 F 0.463401 0.549018 0.524732
386 C 0.478176 0.547876 0.517463
165 F 0.476658 0.551646 0.522931
374 C 0.486047 0.548316 0.516006
161 F 0.487955 0.554839 0.515754
85 F 0.512426 0.550183 0.520666
358 C 0.498468 0.546279 0.521702
129 F 0.499144 0.553005 0.523404
37 F 0.525552 0.547578 0.521075
24 F 0.538302 0.550089 0.519266
479 O 0.559157 0.548603 0.527249
495 S 0.565884 0.552935 0.52722
472 O 0.570231 0.54751 0.524059
272 F 0.554857 0.557761 0.516283
287 F 0.571946 0.562072 0.520785
448 C 0.5654 0.560431 0.522171
439 C 0.561644 0.558569 0.515393
487 O 0.569524 0.552769 0.534851
295 F 0.562509 0.565064 0.526395
215 F 0.386766 0.403147 0.569895
403 C 0.390863 0.408329 0.571694
127 F 0.376635 0.418075 0.563747
207 F 0.391005 0.412008 0.565908
136 F 0.368912 0.420585 0.574461
119 F 0.366553 0.422307 0.561864
82 F 0.382687 0.423341 0.553302
355 C 0.372761 0.424109 0.564249
166 F 0.388008 0.424111 0.57013
202 F 0.397163 0.405607 0.571524
491 S 0.423788 0.414548 0.566434
275 F 0.409621 0.409759 0.573279
483 O 0.419921 0.408907 0.561529
443 C 0.418052 0.418749 0.571979
283 F 0.414025 0.423142 0.568172
475 O 0.427488 0.419695 0.561711
467 O 0.42994 0.410905 0.570323
71 F 0.376836 0.439923 0.549415
336 C 0.38064 0.434393 0.548487
78 F 0.38701 0.436444 0.550978
90 F 0.372239 0.425269 0.549279
342 C 0.377675 0.428165 0.552558
142 F 0.366811 0.43082 0.57232
347 C 0.375319 0.430075 0.559436
98 F 0.370247 0.434747 0.558973
107 F 0.380272 0.433626 0.562708
369 C 0.371893 0.426148 0.571756
160 F 0.379158 0.434539 0.574946
99 F 0.419719 0.454119 0.546092
348 C 0.413337 0.451542 0.546793
361 C 0.413622 0.443581 0.546892
83 F 0.404075 0.450468 0.554342
120 F 0.413457 0.441163 0.553359
91 F 0.412827 0.455919 0.55765
343 C 0.409017 0.454869 0.552329
72 F 0.400177 0.460358 0.546377
329 C 0.409917 0.467649 0.54763
338 C 0.405468 0.461618 0.550451
311 C 0.419744 0.477226 0.549581
318 C 0.415173 0.471449 0.552403
79 F 0.402277 0.464261 0.556139
35 F 0.419773 0.467578 0.555148
45 F 0.411341 0.47416 0.557382
303 C 0.422732 0.482689 0.554098
2 F 0.423137 0.479709 0.560246
19 F 0.4246 0.474258 0.545573
216 F 0.434719 0.481333 0.552631
222 F 0.417052 0.497655 0.546586
9 F 0.417826 0.487453 0.555366
422 C 0.422232 0.508786 0.547654
430 C 0.414796 0.51113 0.547604
245 F 0.410718 0.507594 0.551765
237 F 0.424767 0.508954 0.554081
397 C 0.430785 0.491044 0.54593
113 F 0.449398 0.511074 0.547317
405 C 0.429717 0.486208 0.552347
209 F 0.432023 0.489691 0.557818
384 C 0.443474 0.49401 0.546466
453 O 0.428815 0.497888 0.547322
172 F 0.441874 0.500145 0.549382
168 F 0.445261 0.490059 0.551827
125 F 0.453178 0.502333 0.556672
349 C 0.456294 0.510182 0.547764
357 C 0.457458 0.503114 0.551335
367 C 0.456983 0.496811 0.546323
135 F 0.458562 0.490992 0.549761
115 F 0.463563 0.502493 0.554551
293 F 0.422663 0.526768 0.546051
261 F 0.414408 0.51769 0.549701
477 O 0.437657 0.531748 0.549971
270 F 0.432837 0.518464 0.550838
69 F 0.44895 0.524032 0.55161
335 C 0.455788 0.523614 0.549887
84 F 0.457638 0.515589 0.55861
76 F 0.458845 0.528386 0.553931
344 C 0.458822 0.516404 0.551805
93 F 0.465917 0.516772 0.551473
385 C 0.384534 0.423859 0.576054
186 F 0.378796 0.41274 0.577159
395 C 0.390565 0.412192 0.578602
387 C 0.384036 0.416683 0.579155
194 F 0.39044 0.406809 0.583064
178 F 0.382652 0.41734 0.586083
291 F 0.42189 0.42264 0.576112
459 O 0.410614 0.417973 0.58138
259 F 0.416809 0.414408 0.593407
251 F 0.41055 0.423075 0.594903
219 F 0.395366 0.415893 0.592069
451 O 0.396484 0.416054 0.580002
435 C 0.414158 0.41379 0.576604
267 F 0.418101 0.40949 0.579782
411 C 0.399522 0.417343 0.586781
243 F 0.407277 0.413523 0.599345
227 F 0.39962 0.424073 0.587366
235 F 0.406122 0.408112 0.586562
419 C 0.406909 0.414695 0.587015
427 C 0.410246 0.416372 0.593616
151 F 0.375791 0.428444 0.582933
170 F 0.388591 0.427248 0.580254
378 C 0.377976 0.42795 0.576325
