LAMMPS data file using Dreiding for structure

4980  atoms
4979  bonds
9811  angles
14016  dihedrals

6  atom types
11  bond types
5  angle types
48  dihedral types

0 70 xlo xhi
0 70 ylo yhi
0 95 zlo zhi


Masses

  2     12.011000     # C_3
  3     15.999400     # O_3
  4     15.999400     # O_2
  1     18.998400     # F_
  5     32.060000     # S_3
  6     32.060000     # S_3

Atoms

     1   1   1   -0.19227      0.69200000     41.33200000     26.28600000   0   0   0
     2   1   1   -0.19227     41.64800000     62.96100000     21.98000000   0   0   0
     3   1   1   -0.16086     66.87000000     21.68100000     15.65200000   0   0   0
     4   1   1   -0.19227     64.29800000     63.86900000     22.11700000   0   0   0
     5   1   1   -0.19227     55.30600000     54.35900000     23.66500000   0   0   0
     6   1   1   -0.19227      2.63200000     25.23200000     26.95800000   0   0   0
     7   1   1   -0.19227     34.78900000      1.84400000     28.88800000   0   0   0
     8   1   1   -0.19227      5.64100000     51.48700000     19.50100000   0   0   0
     9   1   1   -0.19227     40.47200000     62.03500000     23.57900000   0   0   0
    10   1   1   -0.19227     64.34700000     62.41100000     20.48400000   0   0   0
    11   1   1   -0.19227      6.26200000     52.96700000     20.99100000   0   0   0
    12   1   1   -0.19227      1.06200000     26.15300000     28.17600000   0   0   0
    13   1   1   -0.19227      2.66400000     41.93600000     27.02300000   0   0   0
    14   1   1   -0.19227     54.21800000     54.24000000     21.76700000   0   0   0
    15   1   1   -0.19227     32.73100000      1.10000000     28.95500000   0   0   0
    16   1   1   -0.16086     65.76100000     20.97100000     17.40200000   0   0   0
    17   1   1   -0.16086     66.54200000     19.54100000     15.94700000   0   0   0
    18   1   1   -0.19226      5.09300000     53.49600000     17.58200000   0   0   0
    19   1   1   -0.19226     42.89300000     64.75000000     23.78900000   0   0   0
    20   1   1   -0.19226      4.64000000     26.83800000     28.14800000   0   0   0
    21   1   1   -0.18904     69.27200000     20.48700000     16.55800000   0   0   0
    22   1   1   -0.19226      1.65500000     41.04800000     23.63700000   0   0   0
    23   1   1   -0.19226     53.04300000     53.51000000     25.13700000   0   0   0
    24   1   1   -0.19226     64.57200000     61.84100000     24.07500000   0   0   0
    25   1   1   -0.19226     33.93100000      4.53900000     29.01500000   0   0   0
    26   1   1   -0.19226      3.28400000     27.57600000     29.65100000   0   0   0
    27   1   1   -0.19226     64.99300000     60.33900000     22.58800000   0   0   0
    28   1   1   -0.19226      3.70400000     41.27600000     24.26300000   0   0   0
    29   1   1   -0.19226      6.00000000     55.02800000     18.79500000   0   0   0
    30   1   1   -0.19226     31.89900000      3.96500000     29.44500000   0   0   0
    31   1   1   -0.19226     51.95700000     53.00400000     23.34600000   0   0   0
    32   1   1   -0.18904     68.25600000     19.42700000     18.13500000   0   0   0
    33   1   1   -0.19226     42.08700000     63.71900000     25.50100000   0   0   0
    34   1   1   -0.19226      2.85300000     53.92900000     18.71900000   0   0   0
    35   1   1   -0.19226     40.81700000     66.22800000     23.70900000   0   0   0
    36   1   1   -0.19211     69.62900000     22.46500000     18.12600000   0   0   0
    37   1   1   -0.19226     62.08100000     61.34200000     23.86500000   0   0   0
    38   1   1   -0.19226     33.41700000      4.46300000     26.51900000   0   0   0
    39   1   1   -0.19226      3.97200000     28.76000000     26.61000000   0   0   0
    40   1   1   -0.19226      1.47500000     43.57300000     23.33200000   0   0   0
    41   1   1   -0.19226     52.11400000     55.88200000     25.02200000   0   0   0
    42   1   1   -0.19226     62.10000000     62.21500000     21.89500000   0   0   0
    43   1   1   -0.19226     33.25000000      2.31800000     26.64800000   0   0   0
    44   1   1   -0.19226     53.32700000     56.24200000     23.27700000   0   0   0
    45   1   1   -0.19226     39.65900000     64.52000000     23.08600000   0   0   0
    46   1   1   -0.19226      3.64200000     53.08300000     20.53600000   0   0   0
    47   1   1   -0.19226      1.58800000     43.81100000     25.47100000   0   0   0
    48   1   1   -0.19226      2.02600000     27.86200000     26.37900000   0   0   0
    49   1   1   -0.19211     67.51200000     22.86300000     18.06000000   0   0   0
    50   1   1   -0.19226      4.38300000     43.47900000     23.17000000   0   0   0
    51   1   1   -0.19226     50.04000000     54.69000000     23.35800000   0   0   0
    52   1   1   -0.19225     69.21300000     20.50400000     20.24200000   0   0   0
    53   1   1   -0.19226      4.01500000     56.51600000     19.39600000   0   0   0
    54   1   1   -0.19226     30.64200000      4.74700000     27.36600000   0   0   0
    55   1   1   -0.19226     40.49700000     65.44900000     26.50000000   0   0   0
    56   1   1   -0.19226      3.10000000     30.05500000     29.07200000   0   0   0
    57   1   1   -0.19226     62.96800000     58.79400000     22.76400000   0   0   0
    58   1   1   -0.19226      4.51700000     43.68000000     25.31300000   0   0   0
    59   1   1   -0.19226      1.15800000     29.13600000     28.87700000   0   0   0
    60   1   1   -0.19225     67.08700000     20.86100000     20.16600000   0   0   0
    61   1   1   -0.19226     63.03000000     59.66000000     20.79000000   0   0   0
    62   1   1   -0.19226     39.36800000     63.71400000     25.89400000   0   0   0
    63   1   1   -0.19226     30.46700000      2.60400000     27.53700000   0   0   0
    64   1   1   -0.19226      4.84500000     55.67800000     21.20200000   0   0   0
    65   1   1   -0.19226     51.25500000     55.00800000     21.60300000   0   0   0
    66   1   1   -0.19226      0.56400000     31.26100000     27.56700000   0   0   0
    67   1   1   -0.19226     67.57900000     22.64600000     21.94100000   0   0   0
    68   1   1   -0.19226      2.62800000     56.41400000     22.26300000   0   0   0
    69   1   1   -0.19226     50.03600000     57.26400000     21.47900000   0   0   0
    70   1   1   -0.19226     60.59600000     58.85900000     20.63800000   0   0   0
    71   1   1   -0.19226     29.71400000      2.72500000     25.08600000   0   0   0
    72   1   1   -0.19226     37.33900000     65.27200000     26.11500000   0   0   0
    73   1   1   -0.19226      4.58700000     46.19700000     24.82000000   0   0   0
    74   1   1   -0.19226      2.44400000     46.03300000     24.78100000   0   0   0
    75   1   1   -0.19226     60.14900000     60.70700000     21.63800000   0   0   0
    76   1   1   -0.19226     51.54200000     57.91400000     22.86700000   0   0   0
    77   1   1   -0.19226      1.89000000     54.54100000     21.51100000   0   0   0
    78   1   1   -0.19226     31.82000000      2.70600000     24.65900000   0   0   0
    79   1   1   -0.19226     37.85000000     65.86900000     24.11400000   0   0   0
    80   1   1   -0.19226     68.03900000     23.89500000     20.25300000   0   0   0
    81   1   1   -0.19226      1.43000000     30.22000000     25.89900000   0   0   0
    82   1   1   -0.19226     31.30300000      4.83200000     23.31800000   0   0   0
    83   1   1   -0.19226     37.83700000     68.23900000     25.09800000   0   0   0
    84   1   1   -0.19226     49.53900000     58.65400000     24.29100000   0   0   0
    85   1   1   -0.19226     58.92400000     59.20000000     23.31600000   0   0   0
    86   1   1   -0.19226      0.07600000     55.99200000     20.41700000   0   0   0
    87   1   1   -0.19226      2.66100000     47.13700000     22.47400000   0   0   0
    88   1   1   -0.19226      0.26700000     24.27300000     21.46900000   0   0   0
    89   1   1   -0.19226      2.87200000     32.33100000     25.66600000   0   0   0
    90   1   1   -0.19226     31.53400000      5.81900000     25.22100000   0   0   0
    91   1   1   -0.19226     39.87000000     67.77900000     25.65000000   0   0   0
    92   1   1   -0.19226     60.87200000     58.99900000     24.21600000   0   0   0
    93   1   1   -0.19226     49.55800000     56.61000000     24.97700000   0   0   0
    94   1   1   -0.19226      1.53200000     56.23400000     18.84600000   0   0   0
    95   1   1   -0.19226      2.98900000     45.11900000     21.78800000   0   0   0
    96   1   1   -0.19226      4.12800000     31.36300000     27.12800000   0   0   0
    97   1   1   -0.19226      0.85800000     22.44800000     20.48500000   0   0   0
    98   1   1   -0.19226     28.70000000      5.54700000     25.74000000   0   0   0
    99   1   1   -0.19226     38.97900000     66.78800000     28.22000000   0   0   0
   100   1   1   -0.19226     47.70100000     55.85900000     22.88900000   0   0   0
   101   1   1   -0.19226     61.40500000     56.65200000     22.61100000   0   0   0
   102   1   1   -0.19226      2.56300000     58.61600000     20.12600000   0   0   0
   103   1   1   -0.19226      5.84600000     45.43600000     22.12500000   0   0   0
   104   1   1   -0.19226     69.96400000     20.89700000     22.75800000   0   0   0
   105   1   1   -0.19226      2.69000000     32.67200000     29.27200000   0   0   0
   106   1   1   -0.19226     69.26000000     22.69000000     23.74100000   0   0   0
   107   1   1   -0.19226     28.43700000      4.45900000     23.89100000   0   0   0
   108   1   1   -0.19226      5.56000000     47.42600000     22.92000000   0   0   0
   109   1   1   -0.19226     36.91700000     67.13400000     27.67000000   0   0   0
   110   1   1   -0.19226     59.50500000     56.87400000     21.60400000   0   0   0
   111   1   1   -0.19226      1.19200000     58.35600000     21.77800000   0   0   0
   112   1   1   -0.19226      1.34000000     33.58100000     27.84900000   0   0   0
   113   1   1   -0.19226     47.73200000     57.87000000     22.10000000   0   0   0
   114   1   1   -0.19226      3.80400000     46.60200000     19.92800000   0   0   0
   115   1   1   -0.19226     47.30200000     57.51400000     25.62100000   0   0   0
   116   1   1   -0.19226      2.53300000     22.78800000     22.32800000   0   0   0
   117   1   1   -0.19226      4.82700000     33.77800000     27.13500000   0   0   0
   118   1   1   -0.19226     59.49900000     57.11900000     25.16200000   0   0   0
   119   1   1   -0.19226     30.34100000      7.47000000     23.74800000   0   0   0
   120   1   1   -0.19226     39.23100000     69.77300000     27.04200000   0   0   0
   121   1   1   -0.19226     69.84700000     58.06600000     18.48900000   0   0   0
   122   1   1   -0.19226      1.67500000     23.76600000     24.04200000   0   0   0
   123   1   1   -0.19226      3.19100000     35.10500000     26.69600000   0   0   0
   124   1   1   -0.19226      4.61400000     48.45800000     20.65600000   0   0   0
   125   1   1   -0.19226     46.58200000     58.98600000     24.22400000   0   0   0
   126   1   1   -0.19226     37.13900000     69.78300000     27.54500000   0   0   0
   127   1   1   -0.19226     29.05800000      6.50900000     22.31200000   0   0   0
   128   1   1   -0.19226     68.99300000     58.76400000     20.33700000   0   0   0
   129   1   1   -0.19226     58.02700000     56.39800000     23.76600000   0   0   0
   130   1   1   -0.19226      3.61500000     21.62100000     24.49500000   0   0   0
   131   1   1   -0.19226      5.13700000     35.92500000     28.72400000   0   0   0
   132   1   1   -0.19226      5.94400000     47.15500000     18.39800000   0   0   0
   133   1   1   -0.19226     39.05800000      0.66500000     29.57300000   0   0   0
   134   1   1   -0.19226     69.58300000     60.73100000     18.24900000   0   0   0
   135   1   1   -0.19226     44.65900000     57.09100000     25.35800000   0   0   0
   136   1   1   -0.19226     28.12500000      8.98300000     23.56700000   0   0   0
   137   1   1   -0.19226     59.41700000     54.44600000     25.44800000   0   0   0
   138   1   1   -0.19226      6.45000000     45.48700000     19.65600000   0   0   0
   139   1   1   -0.19226      2.26500000     20.21000000     23.59300000   0   0   0
   140   1   1   -0.19226      4.54300000     34.27100000     29.96200000   0   0   0
   141   1   1   -0.19226      1.68100000     60.29200000     18.42900000   0   0   0
   142   1   1   -0.19226     28.09600000      8.00200000     25.47900000   0   0   0
   143   1   1   -0.19226     45.68400000     55.46900000     24.38700000   0   0   0
   144   1   1   -0.19226     39.90700000     68.69000000     29.62800000   0   0   0
   145   1   1   -0.19226     61.27700000     54.94800000     24.49400000   0   0   0
   146   1   1   -0.19226      8.63000000     47.01500000     19.60600000   0   0   0
   147   1   1   -0.19226      1.89800000     19.95600000     26.21800000   0   0   0
   148   1   1   -0.19226      3.20300000     36.36900000     30.90300000   0   0   0
   149   1   1   -0.19226      1.29400000     62.48000000     19.89500000   0   0   0
   150   1   1   -0.19226     38.22000000     68.78900000     31.68500000   0   0   0
   151   1   1   -0.19226     25.58300000      7.91100000     24.60500000   0   0   0
   152   1   1   -0.19226     43.63400000     56.05900000     22.79500000   0   0   0
   153   1   1   -0.19226     60.42400000     52.75100000     23.25500000   0   0   0
   154   1   1   -0.19226      0.17800000     21.03200000     25.49900000   0   0   0
   155   1   1   -0.19226      1.75500000     35.20100000     29.82100000   0   0   0
   156   1   1   -0.19226      7.74600000     47.34000000     21.54100000   0   0   0
   157   1   1   -0.19226      1.52800000     60.87600000     21.30900000   0   0   0
   158   1   1   -0.19226     37.23700000     67.58900000     30.19400000   0   0   0
   159   1   1   -0.19226     45.37300000     56.85300000     21.80800000   0   0   0
   160   1   1   -0.19226     26.35200000      5.91600000     24.35200000   0   0   0
   161   1   1   -0.19226     60.06200000     54.36400000     21.87800000   0   0   0
   162   1   1   -0.19227     68.68800000     60.68800000     21.66700000   0   0   0
   163   1   1   -0.19227      6.55700000     49.79800000     20.66100000   0   0   0
   164   1   1   -0.19227      1.96400000     36.93500000     27.54300000   0   0   0
   165   1   1   -0.19227     57.29300000     54.46700000     22.62400000   0   0   0
   166   1   1   -0.19227     26.82500000      6.38200000     21.56000000   0   0   0
   167   1   1   -0.19227     35.63400000     69.81900000     29.36300000   0   0   0
   168   1   1   -0.19227     44.79200000     59.49300000     22.77100000   0   0   0
   169   1   1   -0.19227      1.29900000     23.52900000     26.36000000   0   0   0
   170   1   1   -0.19227     24.78800000      6.59100000     22.22800000   0   0   0
   171   1   1   -0.19227     35.43300000     69.21900000     31.42000000   0   0   0
   172   1   1   -0.19227     43.28000000     58.57500000     21.54500000   0   0   0
   173   1   1   -0.19227     57.98900000     52.59900000     21.81400000   0   0   0
   174   1   1   -0.19227     69.58300000     62.58600000     22.14900000   0   0   0
   175   1   1   -0.19227      8.70400000     49.68700000     20.54700000   0   0   0
   176   1   1   -0.19227      0.98400000     22.05000000     27.89200000   0   0   0
   177   1   1   -0.19227      1.33100000     37.85500000     29.38300000   0   0   0
   178   1   1   -0.19250     25.68400000      9.61000000     22.63500000   0   0   0
   179   1   1   -0.19264     37.75600000      1.34600000     31.82100000   0   0   0
   180   1   1   -0.19264     42.21100000     57.57400000     24.36200000   0   0   0
   181   1   1   -0.19264     58.54300000     51.97100000     24.87700000   0   0   0
   182   1   1   -0.19264     68.91600000     63.18800000     19.10400000   0   0   0
   183   1   1   -0.19264      8.06600000     48.61100000     17.62800000   0   0   0
   184   1   1   -0.19264      3.96200000     21.25100000     27.13300000   0   0   0
   185   1   1   -0.19264      4.45300000     38.32300000     29.72300000   0   0   0
   186   1   1   -0.19250     27.22200000      9.03800000     21.23300000   0   0   0
   187   1   1   -0.19264     37.02000000      2.07300000     29.92800000   0   0   0
   188   1   1   -0.19264     57.09900000     53.54800000     25.16100000   0   0   0
   189   1   1   -0.19264     43.39500000     59.23100000     25.07200000   0   0   0
   190   1   1   -0.19264     67.52100000     61.56900000     19.39000000   0   0   0
   191   1   1   -0.19264      6.18800000     49.61100000     17.98600000   0   0   0
   192   1   1   -0.19264      4.43300000     38.03800000     27.58400000   0   0   0
   193   1   1   -0.19264      3.99100000     23.26100000     26.34700000   0   0   0
   194   1   1   -0.19498     24.85600000     10.07300000     20.02400000   0   0   0
   195   1   1   -0.19816     35.77000000      3.25100000     32.20300000   0   0   0
   196   1   1   -0.19816     40.69000000     59.89500000     24.46500000   0   0   0
   197   1   1   -0.19816     55.96700000     50.93600000     24.99800000   0   0   0
   198   1   1   -0.19816     66.45700000     64.15100000     19.96600000   0   0   0
   199   1   1   -0.19816      8.17700000     51.25300000     16.77000000   0   0   0
   200   1   1   -0.19816      4.80300000     23.05400000     29.07300000   0   0   0
   201   1   1   -0.19816      4.10300000     40.74600000     28.41100000   0   0   0
   202   1   1   -0.16126     24.71600000      8.21400000     18.08300000   0   0   0
   203   1   1   -0.19264     33.26300000      3.10100000     31.23500000   0   0   0
   204   1   1   -0.19264     53.93400000     51.62900000     23.37500000   0   0   0
   205   1   1   -0.19264      7.72000000     53.40900000     18.31400000   0   0   0
   206   1   1   -0.19264      3.40100000     25.18500000     29.93000000   0   0   0
   207   1   1   -0.16126     24.79300000      6.52600000     19.46800000   0   0   0
   208   1   1   -0.19264     33.37500000      0.95900000     30.82300000   0   0   0
   209   1   1   -0.19264     42.67500000     61.25600000     21.80200000   0   0   0
   210   1   1   -0.19264     55.23100000     52.54100000     21.87200000   0   0   0
   211   1   1   -0.19264     67.00700000     62.56700000     23.14100000   0   0   0
   212   1   1   -0.19264      7.95500000     52.31900000     20.19200000   0   0   0
   213   1   1   -0.19264      0.86700000     39.63300000     27.32200000   0   0   0
   214   1   1   -0.19264      1.50400000     24.46900000     29.11800000   0   0   0
   215   1   1   -0.16126     26.60100000      7.67400000     19.03500000   0   0   0
   216   1   1   -0.19264     43.24300000     61.60600000     23.88300000   0   0   0
   217   1   1   -0.19264     65.96300000     61.50000000     21.54700000   0   0   0
   218   1   1   -0.19264      2.62800000     39.28100000     26.07700000   0   0   0
   219   1   1   -0.16734     22.36400000      8.17800000     19.28000000   0   0   0
   220   1   1   -0.16734     33.19100000      1.92400000     33.59700000   0   0   0
   221   1   1   -0.16734     55.15200000     49.61500000     22.17800000   0   0   0
   222   1   1   -0.16734     39.78500000     60.78200000     21.50700000   0   0   0
   223   1   1   -0.16734     66.73100000     65.48600000     22.88200000   0   0   0
   224   1   1   -0.16734     10.30400000     52.91500000     18.52200000   0   0   0
   225   1   1   -0.16734      1.20300000     41.97600000     29.07300000   0   0   0
   226   1   1   -0.16734      2.68100000     23.18000000     31.48900000   0   0   0
   227   1   1   -0.16734     22.43000000     10.15100000     20.20100000   0   0   0
   228   1   1   -0.16734     34.98300000      2.80800000     34.46300000   0   0   0
   229   1   1   -0.16734     38.84800000     59.43800000     22.94300000   0   0   0
   230   1   1   -0.16734     56.17200000     48.77000000     23.90700000   0   0   0
   231   1   1   -0.16734      3.10700000     42.17600000     30.11100000   0   0   0
   232   1   1   -0.16734     66.99400000     66.33700000     20.89300000   0   0   0
   233   1   1   -0.16734     10.56300000     51.73200000     16.71200000   0   0   0
   234   1   1   -0.16734      4.39300000     21.87500000     31.16200000   0   0   0
   235   1   1   -0.19218     21.66600000      7.20400000     22.15400000   0   0   0
   236   1   1   -0.19218     34.48300000     69.22600000     34.45800000   0   0   0
   237   1   1   -0.19218     40.52600000     58.15700000     20.00500000   0   0   0
   238   1   1   -0.19218     57.97800000     49.55800000     20.87400000   0   0   0
   239   1   1   -0.19218      0.45600000     40.11100000     31.45100000   0   0   0
   240   1   1   -0.19218     69.83800000     65.63800000     23.01800000   0   0   0
   241   1   1   -0.19218     11.71200000     50.51500000     19.91900000   0   0   0
   242   1   1   -0.19218      1.01200000     20.65600000     30.75300000   0   0   0
   243   1   1   -0.16112     19.78500000      7.09900000     20.09000000   0   0   0
   244   1   1   -0.16112     32.16600000      0.18500000     35.69400000   0   0   0
   245   1   1   -0.16112     38.68200000     59.96700000     18.94000000   0   0   0
   246   1   1   -0.16112     55.93100000     47.88400000     19.97300000   0   0   0
   247   1   1   -0.16112     68.23400000     67.26600000     24.62500000   0   0   0
   248   1   1   -0.16112     12.96400000     53.00500000     19.70300000   0   0   0
   249   1   1   -0.16112      0.99900000     21.70000000     33.34700000   0   0   0
   250   1   1   -0.16112     69.21300000     42.58900000     31.10400000   0   0   0
   251   1   1   -0.16112     19.68100000      9.27700000     19.92700000   0   0   0
   252   1   1   -0.16112     33.21100000      1.89700000     36.56700000   0   0   0
   253   1   1   -0.16112     37.23600000     59.60300000     20.54000000   0   0   0
   254   1   1   -0.16112     55.88100000     46.75400000     21.84400000   0   0   0
   255   1   1   -0.16112     67.44600000     68.36900000     22.90800000   0   0   0
   256   1   1   -0.16112     13.10200000     52.86700000     17.52500000   0   0   0
   257   1   1   -0.16112      1.06100000     43.69300000     31.49100000   0   0   0
   258   1   1   -0.16112      3.10500000     21.21100000     33.67100000   0   0   0
   259   1   1   -0.16112     18.87300000      8.27300000     21.68900000   0   0   0
   260   1   1   -0.16112     33.62800000     69.87800000     37.28700000   0   0   0
   261   1   1   -0.16112     37.65200000     58.04700000     19.06600000   0   0   0
   262   1   1   -0.16112     57.59700000     46.57800000     20.50700000   0   0   0
   263   1   1   -0.16112      0.07400000     42.61400000     33.11100000   0   0   0
   264   1   1   -0.16112     69.53400000     68.61000000     23.49600000   0   0   0
   265   1   1   -0.16112     14.31500000     51.55900000     18.78200000   0   0   0
   266   1   1   -0.16112      1.62200000     19.61500000     33.53000000   0   0   0
   267   1   1   -0.16583     20.16200000      8.35000000     24.12000000   0   0   0
   268   1   1   -0.16583     35.96300000     68.56600000     36.65300000   0   0   0
   269   1   1   -0.16583     60.01600000     47.75700000     21.08700000   0   0   0
   270   1   1   -0.16583     39.15000000     55.82400000     19.68800000   0   0   0
   271   1   1   -0.16583      1.42200000     18.01500000     31.30000000   0   0   0
   272   1   1   -0.16583      1.58700000     67.49000000     22.04600000   0   0   0
   273   1   1   -0.16583     13.73200000     48.88500000     19.08000000   0   0   0
   274   1   1   -0.16583      1.08000000     40.25100000     34.10300000   0   0   0
   275   1   1   -0.16583     22.33400000      8.47900000     24.23500000   0   0   0
   276   1   1   -0.16583     36.97900000     68.93300000     34.76100000   0   0   0
   277   1   1   -0.16583     40.74100000     55.92200000     21.17300000   0   0   0
   278   1   1   -0.16583     60.11700000     49.61000000     22.22800000   0   0   0
   279   1   1   -0.16583      1.92200000     18.77800000     29.32200000   0   0   0
   280   1   1   -0.16583      1.30400000     65.62600000     20.95600000   0   0   0
   281   1   1   -0.16583     11.67900000     48.16600000     18.97600000   0   0   0
   282   1   1   -0.16583      2.18800000     38.87800000     32.82400000   0   0   0
   283   1   1   -0.17404     22.05500000     11.44400000     24.00800000   0   0   0
   284   1   1   -0.17404     38.34000000      1.24500000     36.07200000   0   0   0
   285   1   1   -0.17404     38.66900000     55.41700000     23.26200000   0   0   0
   286   1   1   -0.17404     60.04500000     47.95400000     24.71000000   0   0   0
   287   1   1   -0.17404      0.24800000     67.24600000     18.68200000   0   0   0
   288   1   1   -0.17404     11.99700000     48.02400000     16.01000000   0   0   0
   289   1   1   -0.17404      4.76400000     18.06100000     29.88900000   0   0   0
   290   1   1   -0.17404      4.64000000     40.47000000     33.43400000   0   0   0
   291   1   1   -0.17404     19.91600000     11.19200000     24.17900000   0   0   0
   292   1   1   -0.17404     37.48100000      0.60600000     37.94800000   0   0   0
   293   1   1   -0.17404     37.24300000     55.07200000     21.67400000   0   0   0
   294   1   1   -0.17404     60.22400000     46.19600000     23.46800000   0   0   0
   295   1   1   -0.17404      0.83200000     69.02500000     19.76100000   0   0   0
   296   1   1   -0.17404     14.09200000     48.47800000     16.27700000   0   0   0
   297   1   1   -0.17404      3.48200000     41.58300000     34.87900000   0   0   0
   298   1   1   -0.17404      4.09300000     17.09400000     31.70100000   0   0   0
   299   2   1   -0.19227      1.03700000     12.07200000     81.42400000   0   0   0
   300   2   1   -0.19227     48.52200000     68.42500000     56.19200000   0   0   0
   301   2   1   -0.16086      5.68400000     33.64600000     76.23900000   0   0   0
   302   2   1   -0.19227     51.93800000     68.16500000     78.59900000   0   0   0
   303   2   1   -0.19227     57.82100000      3.91800000     68.30500000   0   0   0
   304   2   1   -0.19227     12.55000000     23.50900000     81.11300000   0   0   0
   305   2   1   -0.19227     46.46400000     57.06200000     49.84400000   0   0   0
   306   2   1   -0.19227     60.21600000      9.30000000     88.41400000   0   0   0
   307   2   1   -0.19227     50.09600000     67.99800000     54.73000000   0   0   0
   308   2   1   -0.19227     51.72600000      0.34500000     78.63800000   0   0   0
   309   2   1   -0.19227     60.42600000      7.21600000     89.05500000   0   0   0
   310   2   1   -0.19227     12.55400000     21.97200000     79.55200000   0   0   0
   311   2   1   -0.19227      1.51500000     11.17300000     83.36200000   0   0   0
   312   2   1   -0.19227     56.33100000      5.26500000     67.43100000   0   0   0
   313   2   1   -0.19227     46.65100000     57.51800000     47.71000000   0   0   0
   314   2   1   -0.16086      7.23700000     32.96000000     74.85600000   0   0   0
   315   2   1   -0.16086      7.26300000     35.01400000     75.59800000   0   0   0
   316   2   1   -0.19226     57.39200000      9.10800000     88.35900000   0   0   0
   317   2   1   -0.19226     48.86600000     65.91200000     57.45200000   0   0   0
   318   2   1   -0.19226     12.69700000     21.56700000     83.17000000   0   0   0
   319   2   1   -0.18904      7.55100000     33.96500000     78.34500000   0   0   0
   320   2   1   -0.19226     69.46600000     14.09500000     82.63200000   0   0   0
   321   2   1   -0.19226     59.06400000      3.49700000     65.79700000   0   0   0
   322   2   1   -0.19226     54.75600000     68.34000000     78.37900000   0   0   0
   323   2   1   -0.19226     44.61900000     54.97200000     49.34300000   0   0   0
   324   2   1   -0.19226     13.06700000     19.97700000     81.76400000   0   0   0
   325   2   1   -0.19226     54.74400000      0.46000000     78.76100000   0   0   0
   326   2   1   -0.19226      0.12500000     13.55000000     84.61000000   0   0   0
   327   2   1   -0.19226     57.41500000      7.18000000     89.31900000   0   0   0
   328   2   1   -0.19226     44.96200000     55.05900000     47.21700000   0   0   0
   329   2   1   -0.19226     57.91000000      5.05600000     64.86100000   0   0   0
   330   2   1   -0.18904      9.22700000     33.65500000     77.02400000   0   0   0
   331   2   1   -0.19226     50.65600000     65.49400000     56.32800000   0   0   0
   332   2   1   -0.19226     57.54400000      7.97000000     86.08200000   0   0   0
   333   2   1   -0.19226     47.46700000     64.83200000     55.61400000   0   0   0
   334   2   1   -0.19211      7.44100000     31.45600000     78.78300000   0   0   0
   335   2   1   -0.19226     54.50300000     68.79400000     75.88300000   0   0   0
   336   2   1   -0.19226     42.76400000     56.70600000     49.10800000   0   0   0
   337   2   1   -0.19226     10.18800000     21.17800000     82.94200000   0   0   0
   338   2   1   -0.19226     67.53700000     12.44000000     82.82600000   0   0   0
   339   2   1   -0.19226     57.24500000      1.80700000     65.21200000   0   0   0
   340   2   1   -0.19226     52.49400000     69.48500000     76.24000000   0   0   0
   341   2   1   -0.19226     44.25300000     58.19500000     48.64400000   0   0   0
   342   2   1   -0.19226     55.94600000      2.75100000     66.65100000   0   0   0
   343   2   1   -0.19226     47.94700000     66.48500000     54.31600000   0   0   0
   344   2   1   -0.19226     59.56500000      7.38000000     86.54200000   0   0   0