LAMMPS data file using Dreiding for structure

498  atoms
497  bonds
976  angles
1383  dihedrals

5  atom types
5  bond types
3  angle types
15  dihedral types

0.0000000000000000e+00 6.3999000000000002e+01 xlo xhi
0.0000000000000000e+00 4.9942000000000000e+01 ylo yhi
0.0000000000000000e+00 3.7350999999999999e+01 zlo zhi


Masses

  2     12.011000     # C_3
  3     15.999400     # O_3
  4     15.999400     # O_2
  1     18.998400     # F_
  5     32.060000     # S_3

Atoms

     1   1   1   -0.19227     11.69900000     28.64700000     15.05600000   0   0   0
     2   1   1   -0.19227     32.48100000     20.14400000     13.95100000   0   0   0
     3   1   1   -0.16086     19.44200000     21.03100000     13.74100000   0   0   0
     4   1   1   -0.19227     39.16000000     26.67400000     20.75000000   0   0   0
     5   1   1   -0.19227     41.45500000     15.24100000     22.69800000   0   0   0
     6   1   1   -0.19227     24.74000000     25.00800000     21.49700000   0   0   0
     7   1   1   -0.19227     46.87200000     23.59800000     16.44200000   0   0   0
     8   1   1   -0.19227     23.30300000     33.03400000     17.34200000   0   0   0
     9   1   1   -0.19227     31.58300000     22.17100000     14.31100000   0   0   0
    10   1   1   -0.19227     39.79200000     27.94000000     22.44300000   0   0   0
    11   1   1   -0.19227     24.39300000     34.76100000     17.34600000   0   0   0
    12   1   1   -0.19227     23.72700000     25.47700000     23.10600000   0   0   0
    13   1   1   -0.19227     10.77100000     28.52500000     16.88800000   0   0   0
    14   1   1   -0.19227     40.91400000     17.24100000     21.64600000   0   0   0
    15   1   1   -0.19227     46.49600000     25.45300000     15.31000000   0   0   0
    16   1   1   -0.16086     18.40600000     20.83300000     15.70100000   0   0   0
    17   1   1   -0.16086     17.90200000     19.50800000     13.92000000   0   0   0
    18   1   1   -0.19226     23.49600000     32.86400000     20.29700000   0   0   0
    19   1   1   -0.19226     33.48600000     23.41000000     12.97500000   0   0   0
    20   1   1   -0.19226     25.80500000     27.33700000     20.90300000   0   0   0
    21   1   1   -0.18904     20.48500000     18.48300000     14.12900000   0   0   0
    22   1   1   -0.19226     11.43100000     31.33800000     17.54400000   0   0   0
    23   1   1   -0.19226     39.14500000     16.47900000     23.66500000   0   0   0
    24   1   1   -0.19226     38.68100000     24.54600000     22.92400000   0   0   0
    25   1   1   -0.19226     44.63800000     24.12000000     18.15700000   0   0   0
    26   1   1   -0.19226     25.63400000     28.17100000     22.89000000   0   0   0
    27   1   1   -0.19226     39.60500000     25.98200000     24.36600000   0   0   0
    28   1   1   -0.19226     10.00000000     30.79300000     15.93400000   0   0   0
    29   1   1   -0.19226     24.53400000     34.62500000     20.25200000   0   0   0
    30   1   1   -0.19226     44.05300000     25.73000000     17.08900000   0   0   0
    31   1   1   -0.19226     38.95000000     14.46500000     22.95100000   0   0   0
    32   1   1   -0.18904     19.26400000     18.26900000     16.00500000   0   0   0
    33   1   1   -0.19226     33.10000000     21.71600000     11.80600000   0   0   0
    34   1   1   -0.19226     25.30500000     31.65800000     18.47400000   0   0   0
    35   1   1   -0.19226     35.80000000     22.68900000     11.91400000   0   0   0
    36   1   1   -0.19211     21.88100000     20.65300000     15.18300000   0   0   0
    37   1   1   -0.19226     40.77200000     24.60300000     21.20200000   0   0   0
    38   1   1   -0.19226     47.41600000     25.45800000     18.22300000   0   0   0
    39   1   1   -0.19226     23.78600000     28.79700000     20.48200000   0   0   0
    40   1   1   -0.19226     12.84300000     31.05300000     14.34300000   0   0   0
    41   1   1   -0.19226     38.04200000     17.38600000     20.98600000   0   0   0
    42   1   1   -0.19226     41.78500000     26.19400000     22.12300000   0   0   0
    43   1   1   -0.19226     46.28000000     27.11200000     17.44000000   0   0   0
    44   1   1   -0.19226     37.57800000     15.34100000     20.64700000   0   0   0
    45   1   1   -0.19226     35.88100000     22.24100000     13.94700000   0   0   0
    46   1   1   -0.19226     26.55200000     33.38400000     18.32800000   0   0   0
    47   1   1   -0.19226     11.15000000     32.40800000     14.40100000   0   0   0
    48   1   1   -0.19226     22.86100000     26.95900000     21.06000000   0   0   0
    49   1   1   -0.19211     20.67700000     20.49300000     17.08000000   0   0   0
    50   1   1   -0.19226     13.90000000     32.27600000     16.67500000   0   0   0
    51   1   1   -0.19226     36.72300000     17.30600000     23.38600000   0   0   0
    52   1   1   -0.19225     22.86500000     18.00500000     15.69800000   0   0   0
    53   1   1   -0.19226     25.68700000     31.51600000     21.15700000   0   0   0
    54   1   1   -0.19226     46.10300000     25.30100000     20.48200000   0   0   0
    55   1   1   -0.19226     35.42600000     20.08000000     11.11500000   0   0   0
    56   1   1   -0.19226     23.08100000     29.87300000     22.83700000   0   0   0
    57   1   1   -0.19226     40.89200000     23.23700000     23.85800000   0   0   0
    58   1   1   -0.19226     12.21600000     33.68300000     16.74800000   0   0   0
    59   1   1   -0.19226     22.77700000     27.86800000     23.85700000   0   0   0
    60   1   1   -0.19225     21.38600000     17.70500000     17.30100000   0   0   0
    61   1   1   -0.19226     42.34100000     25.03100000     24.22400000   0   0   0
    62   1   1   -0.19226     34.92300000     19.43300000     13.12600000   0   0   0
    63   1   1   -0.19226     44.37800000     26.45600000     19.85300000   0   0   0
    64   1   1   -0.19226     26.81300000     33.49000000     21.16800000   0   0   0
    65   1   1   -0.19226     36.56500000     15.23500000     23.48300000   0   0   0
    66   1   1   -0.19226     20.48100000     29.31500000     23.35500000   0   0   0
    67   1   1   -0.19226     23.91100000     18.21000000     18.25900000   0   0   0
    68   1   1   -0.19226     28.81700000     32.57600000     19.66200000   0   0   0
    69   1   1   -0.19226     34.19300000     16.38600000     23.06500000   0   0   0
    70   1   1   -0.19226     43.98700000     23.12000000     23.51800000   0   0   0
    71   1   1   -0.19226     46.06400000     27.84600000     21.61200000   0   0   0
    72   1   1   -0.19226     37.45000000     18.67500000     12.29600000   0   0   0
    73   1   1   -0.19226     14.00100000     35.01600000     15.62500000   0   0   0
    74   1   1   -0.19226     12.65600000     34.45600000     14.12300000   0   0   0
    75   1   1   -0.19226     43.52300000     24.25400000     21.68300000   0   0   0
    76   1   1   -0.19226     34.76500000     15.29500000     21.51300000   0   0   0
    77   1   1   -0.19226     27.79400000     30.79400000     19.14400000   0   0   0
    78   1   1   -0.19226     46.00700000     28.75800000     19.71300000   0   0   0
    79   1   1   -0.19226     37.36900000     19.86100000     14.04200000   0   0   0
    80   1   1   -0.19226     22.44800000     19.58500000     18.88600000   0   0   0
    81   1   1   -0.19226     20.62900000     27.36500000     22.39500000   0   0   0
    82   1   1   -0.19226     48.46400000     27.72000000     19.12300000   0   0   0
    83   1   1   -0.19226     38.15600000     22.18100000     12.61800000   0   0   0
    84   1   1   -0.19226     33.39200000     17.48300000     20.72400000   0   0   0
    85   1   1   -0.19226     41.70400000     22.23800000     20.84300000   0   0   0
    86   1   1   -0.19226     27.80900000     29.86900000     21.87800000   0   0   0
    87   1   1   -0.19226     15.36100000     34.85000000     13.36500000   0   0   0
    88   1   1   -0.19226     23.45800000     21.62500000     17.33000000   0   0   0
    89   1   1   -0.19226     20.72400000     28.52100000     19.95200000   0   0   0
    90   1   1   -0.19226     48.51400000     26.49900000     20.89300000   0   0   0
    91   1   1   -0.19226     37.82700000     21.26200000     10.69900000   0   0   0
    92   1   1   -0.19226     42.09000000     21.20100000     22.67000000   0   0   0
    93   1   1   -0.19226     35.35700000     17.26700000     19.82800000   0   0   0
    94   1   1   -0.19226     28.63300000     31.85400000     22.33900000   0   0   0
    95   1   1   -0.19226     14.64700000     32.95300000     12.81500000   0   0   0
    96   1   1   -0.19226     21.09600000     30.59600000     20.94000000   0   0   0
    97   1   1   -0.19226     24.60500000     20.26400000     16.13800000   0   0   0
    98   1   1   -0.19226     48.60000000     28.73400000     22.57000000   0   0   0
    99   1   1   -0.19226     39.77100000     19.20900000     11.14900000   0   0   0
   100   1   1   -0.19226     36.38700000     19.42100000     21.26300000   0   0   0
   101   1   1   -0.19226     44.77600000     20.90800000     22.17200000   0   0   0
   102   1   1   -0.19226     30.88200000     31.34700000     20.78800000   0   0   0
   103   1   1   -0.19226     15.73000000     31.63200000     14.83900000   0   0   0
   104   1   1   -0.19226     26.19500000     19.46800000     18.25900000   0   0   0
   105   1   1   -0.19226     18.72800000     30.08400000     19.55400000   0   0   0
   106   1   1   -0.19226     24.83100000     20.47400000     19.64300000   0   0   0
   107   1   1   -0.19226     48.10300000     30.11300000     20.82800000   0   0   0
   108   1   1   -0.19226     16.28500000     33.43700000     16.07000000   0   0   0
   109   1   1   -0.19226     40.25500000     20.10900000     13.18100000   0   0   0
   110   1   1   -0.19226     44.68000000     22.08400000     20.37900000   0   0   0
   111   1   1   -0.19226     30.03000000     29.63400000     19.77400000   0   0   0
   112   1   1   -0.19226     18.60200000     30.58400000     21.75000000   0   0   0
   113   1   1   -0.19226     34.83800000     19.10600000     22.86600000   0   0   0
   114   1   1   -0.19226     17.39800000     32.82600000     12.74700000   0   0   0
   115   1   1   -0.19226     34.29900000     20.08600000     19.38800000   0   0   0
   116   1   1   -0.19226     26.21900000     22.33900000     17.02300000   0   0   0
   117   1   1   -0.19226     17.78700000     28.09200000     22.28500000   0   0   0
   118   1   1   -0.19226     42.67000000     19.22500000     21.11300000   0   0   0
   119   1   1   -0.19226     50.82300000     27.81900000     20.87000000   0   0   0
   120   1   1   -0.19226     40.15500000     21.75400000     10.03700000   0   0   0
   121   1   1   -0.19226     30.14600000     29.90200000     23.28400000   0   0   0
   122   1   1   -0.19226     25.40000000     23.02200000     18.92200000   0   0   0
   123   1   1   -0.19226     16.60100000     29.07200000     21.08900000   0   0   0
   124   1   1   -0.19226     18.10600000     34.21800000     14.38500000   0   0   0
   125   1   1   -0.19226     32.85600000     19.91100000     21.20900000   0   0   0
   126   1   1   -0.19226     40.75300000     22.55000000     11.95400000   0   0   0
   127   1   1   -0.19226     50.50900000     29.23600000     19.41700000   0   0   0
   128   1   1   -0.19226     30.00300000     28.08900000     22.09800000   0   0   0
   129   1   1   -0.19226     42.75500000     20.41300000     19.32300000   0   0   0
   130   1   1   -0.19226     28.27400000     23.23200000     18.47300000   0   0   0
   131   1   1   -0.19226     16.72900000     26.32400000     20.49600000   0   0   0
   132   1   1   -0.19226     19.74500000     32.16600000     14.06900000   0   0   0
   133   1   1   -0.19226     42.84800000     21.81800000     10.15900000   0   0   0
   134   1   1   -0.19226     32.30000000     28.51000000     23.42400000   0   0   0
   135   1   1   -0.19226     35.77000000     22.12700000     20.66800000   0   0   0
   136   1   1   -0.19226     52.42100000     30.13900000     21.15300000   0   0   0
   137   1   1   -0.19226     45.28800000     18.36300000     20.85600000   0   0   0
   138   1   1   -0.19226     18.22800000     30.68200000     14.52700000   0   0   0
   139   1   1   -0.19226     28.40400000     21.11000000     18.09700000   0   0   0
   140   1   1   -0.19226     18.83400000     26.53300000     20.18300000   0   0   0
   141   1   1   -0.19226     32.72400000     30.37500000     22.56600000   0   0   0
   142   1   1   -0.19226     51.03300000     29.88300000     22.77500000   0   0   0
   143   1   1   -0.19226     34.65700000     21.95800000     22.43900000   0   0   0
   144   1   1   -0.19226     42.09500000     19.85600000     10.00000000   0   0   0
   145   1   1   -0.19226     45.84500000     19.99300000     19.49300000   0   0   0
   146   1   1   -0.19226     19.66900000     31.05700000     16.58800000   0   0   0
   147   1   1   -0.19226     29.36200000     21.61200000     20.57700000   0   0   0
   148   1   1   -0.19226     17.69500000     26.05400000     17.86500000   0   0   0
   149   1   1   -0.19226     32.84100000     29.07400000     19.97200000   0   0   0
   150   1   1   -0.19226     44.32900000     19.79700000     11.40800000   0   0   0
   151   1   1   -0.19226     51.60700000     32.41800000     22.13400000   0   0   0
   152   1   1   -0.19226     33.92700000     24.02200000     21.00800000   0   0   0
   153   1   1   -0.19226     45.66900000     17.39500000     18.59000000   0   0   0
   154   1   1   -0.19226     27.45700000     20.40000000     20.59700000   0   0   0
   155   1   1   -0.19226     18.53100000     28.08900000     17.99000000   0   0   0
   156   1   1   -0.19226     17.83100000     31.77900000     17.20600000   0   0   0
   157   1   1   -0.19226     32.07700000     27.10400000     20.76200000   0   0   0
   158   1   1   -0.19226     42.62300000     19.10100000     12.51300000   0   0   0
   159   1   1   -0.19226     32.37200000     22.65800000     21.38900000   0   0   0
   160   1   1   -0.19226     49.54200000     31.86100000     22.06900000   0   0   0
   161   1   1   -0.19226     44.39300000     18.84700000     17.63100000   0   0   0
   162   1   1   -0.19227     34.15900000     26.91100000     22.43600000   0   0   0
   163   1   1   -0.19227     20.69600000     33.66900000     15.98900000   0   0   0
   164   1   1   -0.19227     16.00300000     29.16000000     18.21600000   0   0   0
   165   1   1   -0.19227     42.18400000     17.64400000     19.16600000   0   0   0
   166   1   1   -0.19227     49.58200000     31.73100000     19.15600000   0   0   0
   167   1   1   -0.19227     42.68300000     21.70600000     14.00100000   0   0   0
   168   1   1   -0.19227     32.26400000     21.88100000     18.84500000   0   0   0
   169   1   1   -0.19227     25.98300000     22.60800000     21.56400000   0   0   0
   170   1   1   -0.19227     50.08300000     33.67300000     20.28700000   0   0   0
   171   1   1   -0.19227     44.40300000     20.41700000     14.05500000   0   0   0
   172   1   1   -0.19227     32.13200000     24.02900000     19.01900000   0   0   0
   173   1   1   -0.19227     43.13600000     16.55500000     17.58600000   0   0   0
   174   1   1   -0.19227     34.59300000     27.03700000     20.36100000   0   0   0
   175   1   1   -0.19227     18.88000000     34.53700000     16.74500000   0   0   0
   176   1   1   -0.19227     27.81800000     22.19100000     22.69300000   0   0   0
   177   1   1   -0.19227     16.23800000     27.79300000     16.41500000   0   0   0
   178   1   1   -0.19250     52.92200000     32.93500000     19.86200000   0   0   0
   179   1   1   -0.19264     45.17100000     22.35000000     11.59400000   0   0   0
   180   1   1   -0.19264     34.75500000     24.34800000     18.16300000   0   0   0
   181   1   1   -0.19264     44.54800000     15.13500000     19.65700000   0   0   0
   182   1   1   -0.19264     35.11900000     30.02900000     21.21200000   0   0   0
   183   1   1   -0.19264     19.15900000     32.98600000     19.10100000   0   0   0
   184   1   1   -0.19264     29.12800000     24.20200000     21.07700000   0   0   0
   185   1   1   -0.19264     14.95900000     25.71700000     18.19800000   0   0   0
   186   1   1   -0.19250     52.26000000     31.17100000     18.70000000   0   0   0
   187   1   1   -0.19264     43.50500000     23.41700000     12.36200000   0   0   0
   188   1   1   -0.19264     43.53500000     16.35800000     21.25800000   0   0   0
   189   1   1   -0.19264     35.05500000     22.19300000     18.05700000   0   0   0
   190   1   1   -0.19264     35.09600000     29.06100000     23.24100000   0   0   0
   191   1   1   -0.19264     21.06100000     32.24700000     18.39400000   0   0   0
   192   1   1   -0.19264     14.44800000     27.34300000     19.40700000   0   0   0
   193   1   1   -0.19264     27.20700000     24.77300000     20.41300000   0   0   0
   194   1   1   -0.19498     53.10400000     33.12800000     17.18600000   0   0   0
   195   1   1   -0.19816     45.99000000     24.27900000     13.07700000   0   0   0
   196   1   1   -0.19816     34.51000000     23.67500000     15.66100000   0   0   0
   197   1   1   -0.19816     42.71400000     13.78400000     20.89900000   0   0   0
   198   1   1   -0.19816     37.70000000     29.55900000     21.84800000   0   0   0
   199   1   1   -0.19816     21.24400000     34.20000000     20.21100000   0   0   0
   200   1   1   -0.19816     27.99600000     26.48400000     22.36500000   0   0   0
   201   1   1   -0.19816     12.52900000     26.76100000     17.55600000   0   0   0
   202   1   1   -0.16126     50.93500000     33.62800000     15.44700000   0   0   0
   203   1   1   -0.19264     44.52000000     22.46800000     15.84500000   0   0   0
   204   1   1   -0.19264     40.08300000     13.99000000     20.32700000   0   0   0
   205   1   1   -0.19264     22.69300000     36.07100000     19.04500000   0   0   0
   206   1   1   -0.19264     26.15700000     26.01300000     24.59900000   0   0   0
   207   1   1   -0.16126     49.56200000     33.24600000     17.08200000   0   0   0
   208   1   1   -0.19264     43.67400000     24.26200000     14.89100000   0   0   0
   209   1   1   -0.19264     32.38900000     20.87500000     16.42700000   0   0   0
   210   1   1   -0.19264     40.29300000     15.89500000     19.45700000   0   0   0
   211   1   1   -0.19264     36.71200000     26.16900000     22.09700000   0   0   0
   212   1   1   -0.19264     21.98000000     35.56200000     17.07700000   0   0   0
   213   1   1   -0.19264     13.99800000     29.70100000     16.32200000   0   0   0
   214   1   1   -0.19264     25.94200000     24.09400000     23.87600000   0   0   0
   215   1   1   -0.16126     50.84100000     31.61000000     16.31000000   0   0   0
   216   1   1   -0.19264     34.41800000     20.90900000     15.76800000   0   0   0
   217   1   1   -0.19264     37.42800000     27.53400000     23.75900000   0   0   0
   218   1   1   -0.19264     13.03700000     29.50200000     18.31400000   0   0   0
   219   1   1   -0.16734     52.94500000     35.79700000     16.57300000   0   0   0
   220   1   1   -0.16734     48.38100000     23.72600000     14.07800000   0   0   0
   221   1   1   -0.16734     43.09500000     11.94400000     19.11800000   0   0   0
   222   1   1   -0.16734     32.67500000     25.48500000     14.63800000   0   0   0
   223   1   1   -0.16734     36.88200000     30.24900000     19.18000000   0   0   0
   224   1   1   -0.16734     19.55900000     36.21800000     21.11100000   0   0   0
   225   1   1   -0.16734     12.29000000     25.50200000     15.02100000   0   0   0
   226   1   1   -0.16734     29.26900000     26.55300000     24.84800000   0   0   0
   227   1   1   -0.16734     53.33200000     35.53900000     18.73900000   0   0   0
   228   1   1   -0.16734     48.18900000     22.49900000     12.26100000   0   0   0
   229   1   1   -0.16734     33.17900000     26.00300000     16.66000000   0   0   0
   230   1   1   -0.16734     44.10700000     13.33800000     17.75900000   0   0   0
   231   1   1   -0.16734     14.21600000     24.83400000     15.87200000   0   0   0
   232   1   1   -0.16734     35.72600000     28.68400000     18.40200000   0   0   0
   233   1   1   -0.16734     18.03400000     35.16600000     19.77200000   0   0   0
   234   1   1   -0.16734     30.51800000     25.63800000     23.29500000   0   0   0
   235   1   1   -0.19218     50.51800000     37.20300000     17.64000000   0   0   0
   236   1   1   -0.19218     48.46500000     21.29200000     15.72400000   0   0   0
   237   1   1   -0.19218     30.34700000     25.85600000     17.39000000   0   0   0
   238   1   1   -0.19218     40.73300000     11.89700000     17.41300000   0   0   0
   239   1   1   -0.19218     13.80100000     26.98000000     12.92300000   0   0   0
   240   1   1   -0.19218     39.22000000     28.82200000     18.50700000   0   0   0
   241   1   1   -0.19218     19.52000000     38.46200000     19.27400000   0   0   0
   242   1   1   -0.19218     29.34000000     24.36600000     26.48300000   0   0   0
   243   1   1   -0.16112     52.75600000     38.62100000     16.44100000   0   0   0
   244   1   1   -0.16112     50.92800000     22.57900000     14.53400000   0   0   0
   245   1   1   -0.16112     29.66500000     23.66200000     15.75700000   0   0   0
   246   1   1   -0.16112     42.89100000     10.00000000     17.10900000   0   0   0
   247   1   1   -0.16112     37.55700000     30.46400000     16.55000000   0   0   0
   248   1   1   -0.16112     17.65200000     38.13700000     21.67200000   0   0   0
   249   1   1   -0.16112     31.33600000     26.35100000     26.45200000   0   0   0
   250   1   1   -0.16112     14.70900000     23.46100000     13.45600000   0   0   0
   251   1   1   -0.16112     53.99900000     37.95500000     18.09400000   0   0   0
   252   1   1   -0.16112     50.81300000     21.19000000     13.03100000   0   0   0
   253   1   1   -0.16112     30.04400000     24.84700000     13.98200000   0   0   0
   254   1   1   -0.16112     43.96200000     11.50700000     15.73300000   0   0   0
   255   1   1   -0.16112     36.83600000     28.53400000     15.71600000   0   0   0
   256   1   1   -0.16112     16.24400000     37.14700000     20.20800000   0   0   0
   257   1   1   -0.16112     14.85300000     24.50000000     11.61400000   0   0   0
   258   1   1   -0.16112     32.49800000     25.20400000     25.05000000   0   0   0
   259   1   1   -0.16112     52.52500000     39.46800000     18.45700000   0   0   0
   260   1   1   -0.16112     50.99000000     20.34700000     14.96700000   0   0   0
   261   1   1   -0.16112     28.45000000     25.45400000     15.31300000   0   0   0
   262   1   1   -0.16112     42.03800000     10.64500000     15.24600000   0   0   0
   263   1   1   -0.16112     12.92900000     24.32900000     12.62500000   0   0   0
   264   1   1   -0.16112     38.96700000     29.06200000     15.67700000   0   0   0
   265   1   1   -0.16112     16.89400000     39.26200000     19.93500000   0   0   0
   266   1   1   -0.16112     31.95200000     24.27000000     27.03000000   0   0   0
   267   1   1   -0.16583     50.18100000     38.98500000     19.98900000   0   0   0
   268   1   1   -0.16583     48.60700000     18.47300000     15.36800000   0   0   0
   269   1   1   -0.16583     40.23600000     12.60100000     14.65500000   0   0   0
   270   1   1   -0.16583     29.61000000     28.61400000     16.83900000   0   0   0
   271   1   1   -0.16583     30.24300000     21.96900000     26.89800000   0   0   0
   272   1   1   -0.16583     38.98300000     26.28700000     16.00700000   0   0   0
   273   1   1   -0.16583     18.27700000     39.27100000     16.96900000   0   0   0
   274   1   1   -0.16583     16.40400000     26.51700000     11.60400000   0   0   0
   275   1   1   -0.16583     49.35900000     36.85700000     19.92800000   0   0   0
   276   1   1   -0.16583     46.58400000     19.40600000     15.32000000   0   0   0
   277   1   1   -0.16583     31.73600000     28.33700000     17.07200000   0   0   0
   278   1   1   -0.16583     39.82900000     14.27100000     16.15200000   0   0   0
   279   1   1   -0.16583     29.26400000     21.26800000     25.01500000   0   0   0
   280   1   1   -0.16583     40.31600000     26.53800000     17.58800000   0   0   0
   281   1   1   -0.16583     19.28000000     37.46300000     16.31200000   0   0   0
   282   1   1   -0.16583     16.39500000     28.02900000     13.11700000   0   0   0
   283   1   1   -0.17404     50.72400000     36.19300000     22.24700000   0   0   0
   284   1   1   -0.17404     46.73800000     18.30400000     12.42600000   0   0   0
   285   1   1   -0.17404     32.12000000     29.29800000     14.37200000   0   0   0
   286   1   1   -0.17404     41.62900000     15.90200000     14.71000000   0   0   0
   287   1   1   -0.17404     38.61300000     24.46300000     18.99900000   0   0   0
   288   1   1   -0.17404     16.73400000     36.26200000     15.71600000   0   0   0
   289   1   1   -0.17404     31.76700000     20.99200000     23.99200000   0   0   0
   290   1   1   -0.17404     18.62600000     26.65300000     14.49900000   0   0   0
   291   1   1   -0.17404     51.56300000     38.35400000     22.42200000   0   0   0
   292   1   1   -0.17404     48.23000000     17.03600000     13.18600000   0   0   0
   293   1   1   -0.17404     29.82800000     29.57900000     14.22200000   0   0   0
   294   1   1   -0.17404     42.07100000     14.32200000     13.23100000   0   0   0
   295   1   1   -0.17404     37.62500000     24.18100000     17.04100000   0   0   0
   296   1   1   -0.17404     15.82800000     38.10800000     16.49000000   0   0   0
   297   1   1   -0.17404     18.47400000     25.07000000     12.94000000   0   0   0
   298   1   1   -0.17404     32.75400000     21.53500000     25.92800000   0   0   0
   299   1   2    0.38416     38.98400000     26.87100000     22.13700000   0   0   0
   300   1   2    0.44990     18.93600000     20.15900000     14.64300000   0   0   0
   301   1   2    0.38416     24.93400000     25.87200000     22.54400000   0   0   0
   302   1   2    0.38416     45.82100000     24.46500000     16.06300000   0   0   0
   303   1   2    0.38416     32.76700000     21.48500000     14.19700000   0   0   0
   304   1   2    0.38416     23.56300000     34.02000000     18.19700000   0   0   0
   305   1   2    0.38416     40.51600000     15.88500000     21.80500000   0   0   0
   306   1   2    0.38416     11.77400000     29.25800000     16.31900000   0   0   0
   307   1   2    0.38450     11.41700000     30.81300000     16.25200000   0   0   0
   308   1   2    0.40751     19.96700000     19.14900000     15.19800000   0   0   0
   309   1   2    0.38450     24.35100000     33.55000000     19.51000000   0   0   0
   310   1   2    0.38450     39.55500000     25.63800000     22.98100000   0   0   0
   311   1   2    0.38450     33.64800000     22.05100000     12.99500000   0   0   0
   312   1   2    0.38450     24.94500000     27.37800000     21.98800000   0   0   0
   313   1   2    0.38450     45.19900000     25.08300000     17.40500000   0   0   0
   314   1   2    0.38450     39.10200000     15.77400000     22.49300000   0   0   0
   315   1   2    0.38451     25.65300000     32.78700000     19.20800000   0   0   0
   316   1   2    0.38451     46.13100000     26.00700000     18.20800000   0   0   0
   317   1   2    0.38451     23.56200000     28.02900000     21.52500000   0   0   0
   318   1   2    0.38451     35.22400000     21.79900000     12.79700000   0   0   0
   319   1   2    0.38451     12.08600000     31.79400000     15.25700000   0   0   0
   320   1   2    0.38733     21.21200000     19.78000000     15.99500000   0   0   0
   321   1   2    0.38451     37.85300000     16.19400000     21.69700000   0   0   0
   322   1   2    0.38451     40.95800000     25.16200000     22.39600000   0   0   0
   323   1   2    0.38451     41.78400000     24.16900000     23.28200000   0   0   0
   324   1   2    0.38451     12.97000000     32.92000000     15.89600000   0   0   0
   325   1   2    0.38451     45.72300000     26.35800000     19.69800000   0   0   0
   326   1   2    0.38451     26.50200000     32.37600000     20.41700000   0   0   0
   327   1   2    0.38451     36.55800000     16.25200000     22.57100000   0   0   0
   328   1   2    0.38465     22.16800000     18.74400000     16.71800000   0   0   0
   329   1   2    0.38451     35.70500000     20.33400000     12.42600000   0   0   0
   330   1   2    0.38451     22.61500000     28.59700000     22.64600000   0   0   0
   331   1   2    0.38451     21.08800000     28.65400000     22.35900000   0   0   0
   332   1   2    0.38451     13.68200000     33.90000000     14.89300000   0   0   0
   333   1   2    0.38451     23.14500000     19.26400000     17.78700000   0   0   0
   334   1   2    0.38451     27.93100000     31.71400000     20.19500000   0   0   0
   335   1   2    0.38451     35.06300000     16.50700000     22.03400000   0   0   0
   336   1   2    0.38451     46.46200000     27.59600000     20.33400000   0   0   0
   337   1   2    0.38451     43.01000000     23.40600000     22.59600000   0   0   0
   338   1   2    0.38451     37.18600000     19.97200000     12.68400000   0   0   0
   339   1   2    0.38451     24.10800000     20.43300000     17.42100000   0   0   0
   340   1   2    0.38451     14.94400000     33.67700000     13.96400000   0   0   0
   341   1   2    0.38451     28.55500000     30.90200000     21.31600000   0   0   0
   342   1   2    0.38451     48.01400000     27.63100000     20.37500000   0   0   0
   343   1   2    0.38451     38.24000000     20.97200000     12.02500000   0   0   0