# Created by Karina Chiñas Fuentes | Python | 19.08.24

2700 atoms
3885 bonds
7450 angles
14355 dihedrals
2380 impropers
8 atom types
7 bond types
5 angle types
16 dihedral types
1 improper types

-20 20 xlo xhi
-20 20 ylo yhi
 0 300 zlo zhi

# Pair Coeffs
# 6  CA

# Bond Coeffs
# 6  CA-CA

# Angle Coeffs
# 4  CA-CA-CA

# Dihedral Coeffs
# 16  CA-CA-CA-CA

# Improper Coeffs
# 1  CA-CA-CA-CA

 Masses

1     18.998400  # F_  | Nafion   (DREIDING)
2     12.011000  # C_3 | Nafion   (DREIDING)
3     15.999400  # O_3 | Nafion   (DREIDING)
4     15.999400  # O_2 | Nafion   (DREIDING)
5     32.060000  # S_3 | Nafion   (DREIDING)
6     12.011000  # C   | Graphite (OPLSAA-AA)
7     1.008      # H   | Water    (SPC/Fw)
8     15.999400  # O   | Water    (SPC/Fw)

 Atoms

1	1	6	-0.0170000	-18.0795000	-18.4203610	0.0000000 # CA GRA
2	2	6	-0.0441800	-18.7885000	-17.1923370	0.0000000 # CA GRA
3	3	6	-0.0513800	-16.6615000	-18.4203610	0.0000000 # CA GRA
4	4	6	0.0516000	-15.9525000	-17.1923370	0.0000000 # CA GRA
5	5	6	-0.0595700	-13.8255000	-18.4203610	0.0000000 # CA GRA
6	6	6	0.0498100	-14.5345000	-17.1923370	0.0000000 # CA GRA
7	7	6	-0.0595700	-12.4075000	-18.4203610	0.0000000 # CA GRA
8	8	6	0.0497500	-11.6985000	-17.1923370	0.0000000 # CA GRA
9	9	6	-0.0595700	-9.5715000	-18.4203610	0.0000000 # CA GRA
10	10	6	0.0497500	-10.2805000	-17.1923370	0.0000000 # CA GRA
11	11	6	-0.0595700	-8.1535000	-18.4203610	0.0000000 # CA GRA
12	12	6	0.0497500	-7.4445000	-17.1923370	0.0000000 # CA GRA
13	13	6	-0.0595700	-5.3175000	-18.4203610	0.0000000 # CA GRA
14	14	6	0.0497500	-6.0265000	-17.1923370	0.0000000 # CA GRA
15	15	6	-0.0595700	-3.8995000	-18.4203610	0.0000000 # CA GRA
16	16	6	0.0497500	-3.1905000	-17.1923370	0.0000000 # CA GRA
17	17	6	-0.0595700	-1.0634990	-18.4203610	0.0000000 # CA GRA
18	18	6	0.0497500	-1.7725010	-17.1923370	0.0000000 # CA GRA
19	19	6	-0.0595700	0.3545000	-18.4203610	0.0000000 # CA GRA
20	20	6	0.0497500	1.0635000	-17.1923370	0.0000000 # CA GRA
21	21	6	-0.0595700	3.1905000	-18.4203610	0.0000000 # CA GRA
22	22	6	0.0497500	2.4815010	-17.1923370	0.0000000 # CA GRA
23	23	6	-0.0595700	4.6085000	-18.4203610	0.0000000 # CA GRA
24	24	6	0.0497500	5.3174990	-17.1923370	0.0000000 # CA GRA
25	25	6	-0.0595700	7.4445000	-18.4203610	0.0000000 # CA GRA
26	26	6	0.0497500	6.7355010	-17.1923370	0.0000000 # CA GRA
27	27	6	-0.0595700	8.8624990	-18.4203610	0.0000000 # CA GRA
28	28	6	0.0497500	9.5714990	-17.1923370	0.0000000 # CA GRA
29	29	6	-0.0595700	11.6985000	-18.4203610	0.0000000 # CA GRA
30	30	6	0.0497500	10.9895000	-17.1923370	0.0000000 # CA GRA
31	31	6	-0.0595700	13.1164990	-18.4203610	0.0000000 # CA GRA
32	32	6	0.0498100	13.8255010	-17.1923370	0.0000000 # CA GRA
33	33	6	-0.0513800	15.9525010	-18.4203610	0.0000000 # CA GRA
34	34	6	0.0516000	15.2435020	-17.1923370	0.0000000 # CA GRA
35	35	6	-0.0170000	17.3705010	-18.4203610	0.0000000 # CA GRA
36	36	6	-0.0441800	18.0795000	-17.1923370	0.0000000 # CA GRA
37	37	6	0.0778100	-18.0795000	-15.9643130	0.0000000 # CA GRA
38	38	6	-0.0858100	-18.7885000	-14.7362890	0.0000000 # CA GRA
39	39	6	0.0236100	-16.6615000	-15.9643130	0.0000000 # CA GRA
40	40	6	0.0031600	-15.9525000	-14.7362890	0.0000000 # CA GRA
41	41	6	0.0091100	-13.8255000	-15.9643130	0.0000000 # CA GRA
42	42	6	0.0007900	-14.5345000	-14.7362890	0.0000000 # CA GRA
43	43	6	0.0091000	-12.4075000	-15.9643130	0.0000000 # CA GRA
44	44	6	0.0007000	-11.6985000	-14.7362890	0.0000000 # CA GRA
45	45	6	0.0091000	-9.5715000	-15.9643130	0.0000000 # CA GRA
46	46	6	0.0007000	-10.2805000	-14.7362890	0.0000000 # CA GRA
47	47	6	0.0091000	-8.1535000	-15.9643130	0.0000000 # CA GRA
48	48	6	0.0007000	-7.4445000	-14.7362890	0.0000000 # CA GRA
49	49	6	0.0091000	-5.3175000	-15.9643130	0.0000000 # CA GRA
50	50	6	0.0007000	-6.0265000	-14.7362890	0.0000000 # CA GRA
51	51	6	0.0091000	-3.8995000	-15.9643130	0.0000000 # CA GRA
52	52	6	0.0007000	-3.1905000	-14.7362890	0.0000000 # CA GRA
53	53	6	0.0091000	-1.0634990	-15.9643130	0.0000000 # CA GRA
54	54	6	0.0007000	-1.7725010	-14.7362890	0.0000000 # CA GRA
55	55	6	0.0091000	0.3545000	-15.9643130	0.0000000 # CA GRA
56	56	6	0.0007000	1.0635000	-14.7362890	0.0000000 # CA GRA
57	57	6	0.0091000	3.1905000	-15.9643130	0.0000000 # CA GRA
58	58	6	0.0007000	2.4815010	-14.7362890	0.0000000 # CA GRA
59	59	6	0.0091000	4.6085000	-15.9643130	0.0000000 # CA GRA
60	60	6	0.0007000	5.3174990	-14.7362890	0.0000000 # CA GRA
61	61	6	0.0091000	7.4445000	-15.9643130	0.0000000 # CA GRA
62	62	6	0.0007000	6.7355010	-14.7362890	0.0000000 # CA GRA
63	63	6	0.0091000	8.8624990	-15.9643130	0.0000000 # CA GRA
64	64	6	0.0007000	9.5714990	-14.7362890	0.0000000 # CA GRA
65	65	6	0.0091000	11.6985000	-15.9643130	0.0000000 # CA GRA
66	66	6	0.0007000	10.9895000	-14.7362890	0.0000000 # CA GRA
67	67	6	0.0091100	13.1164990	-15.9643130	0.0000000 # CA GRA
68	68	6	0.0007900	13.8255010	-14.7362890	0.0000000 # CA GRA
69	69	6	0.0236100	15.9525010	-15.9643130	0.0000000 # CA GRA
70	70	6	0.0031600	15.2435020	-14.7362890	0.0000000 # CA GRA
71	71	6	0.0778100	17.3705010	-15.9643130	0.0000000 # CA GRA
72	72	6	-0.0858100	18.0795000	-14.7362890	0.0000000 # CA GRA
73	73	6	0.0694400	-18.0795000	-13.5082650	0.0000000 # CA GRA
74	74	6	-0.0865000	-18.7885000	-12.2802410	0.0000000 # CA GRA
75	75	6	0.0145700	-16.6615000	-13.5082650	0.0000000 # CA GRA
76	76	6	0.0024500	-15.9525000	-12.2802410	0.0000000 # CA GRA
77	77	6	0.0000300	-13.8255000	-13.5082650	0.0000000 # CA GRA
78	78	6	0.0000900	-14.5345000	-12.2802410	0.0000000 # CA GRA
79	79	6	0.0000200	-12.4075000	-13.5082650	0.0000000 # CA GRA
80	80	6	0.0000000	-11.6985000	-12.2802410	0.0000000 # CA GRA
81	81	6	0.0000200	-9.5715000	-13.5082650	0.0000000 # CA GRA
82	82	6	0.0000000	-10.2805000	-12.2802410	0.0000000 # CA GRA
83	83	6	0.0000200	-8.1535000	-13.5082650	0.0000000 # CA GRA
84	84	6	0.0000000	-7.4445000	-12.2802410	0.0000000 # CA GRA
85	85	6	0.0000200	-5.3175000	-13.5082650	0.0000000 # CA GRA
86	86	6	0.0000000	-6.0265000	-12.2802410	0.0000000 # CA GRA
87	87	6	0.0000200	-3.8995000	-13.5082650	0.0000000 # CA GRA
88	88	6	0.0000000	-3.1905000	-12.2802410	0.0000000 # CA GRA
89	89	6	0.0000200	-1.0634990	-13.5082650	0.0000000 # CA GRA
90	90	6	0.0000000	-1.7725010	-12.2802410	0.0000000 # CA GRA
91	91	6	0.0000200	0.3545000	-13.5082650	0.0000000 # CA GRA
92	92	6	0.0000000	1.0635000	-12.2802410	0.0000000 # CA GRA
93	93	6	0.0000200	3.1905000	-13.5082650	0.0000000 # CA GRA
94	94	6	0.0000000	2.4815010	-12.2802410	0.0000000 # CA GRA
95	95	6	0.0000200	4.6085000	-13.5082650	0.0000000 # CA GRA
96	96	6	0.0000000	5.3174990	-12.2802410	0.0000000 # CA GRA
97	97	6	0.0000200	7.4445000	-13.5082650	0.0000000 # CA GRA
98	98	6	0.0000000	6.7355010	-12.2802410	0.0000000 # CA GRA
99	99	6	0.0000200	8.8624990	-13.5082650	0.0000000 # CA GRA
100	100	6	0.0000000	9.5714990	-12.2802410	0.0000000 # CA GRA
101	101	6	0.0000200	11.6985000	-13.5082650	0.0000000 # CA GRA
102	102	6	0.0000000	10.9895000	-12.2802410	0.0000000 # CA GRA
103	103	6	0.0000300	13.1164990	-13.5082650	0.0000000 # CA GRA
104	104	6	0.0000900	13.8255010	-12.2802410	0.0000000 # CA GRA
105	105	6	0.0145700	15.9525010	-13.5082650	0.0000000 # CA GRA
106	106	6	0.0024500	15.2435020	-12.2802410	0.0000000 # CA GRA
107	107	6	0.0694400	17.3705010	-13.5082650	0.0000000 # CA GRA
108	108	6	-0.0865000	18.0795000	-12.2802410	0.0000000 # CA GRA
109	109	6	0.0694100	-18.0795000	-11.0522170	0.0000000 # CA GRA
110	110	6	-0.0865000	-18.7885000	-9.8241920	0.0000000 # CA GRA
111	111	6	0.0145400	-16.6615000	-11.0522170	0.0000000 # CA GRA
112	112	6	0.0024500	-15.9525000	-9.8241920	0.0000000 # CA GRA
113	113	6	0.0000000	-13.8255000	-11.0522170	0.0000000 # CA GRA
114	114	6	0.0000900	-14.5345000	-9.8241920	0.0000000 # CA GRA
115	115	6	0.0000000	-12.4075000	-11.0522170	0.0000000 # CA GRA
116	116	6	0.0000000	-11.6985000	-9.8241920	0.0000000 # CA GRA
117	117	6	0.0000000	-9.5715000	-11.0522170	0.0000000 # CA GRA
118	118	6	0.0000000	-10.2805000	-9.8241920	0.0000000 # CA GRA
119	119	6	0.0000000	-8.1535000	-11.0522170	0.0000000 # CA GRA
120	120	6	0.0000000	-7.4445000	-9.8241920	0.0000000 # CA GRA
121	121	6	0.0000000	-5.3175000	-11.0522170	0.0000000 # CA GRA
122	122	6	0.0000000	-6.0265000	-9.8241920	0.0000000 # CA GRA
123	123	6	0.0000000	-3.8995000	-11.0522170	0.0000000 # CA GRA
124	124	6	0.0000000	-3.1905000	-9.8241920	0.0000000 # CA GRA
125	125	6	0.0000000	-1.0634990	-11.0522170	0.0000000 # CA GRA
126	126	6	0.0000000	-1.7725010	-9.8241920	0.0000000 # CA GRA
127	127	6	0.0000000	0.3545000	-11.0522170	0.0000000 # CA GRA
128	128	6	0.0000000	1.0635000	-9.8241920	0.0000000 # CA GRA
129	129	6	0.0000000	3.1905000	-11.0522170	0.0000000 # CA GRA
130	130	6	0.0000000	2.4815010	-9.8241920	0.0000000 # CA GRA
131	131	6	0.0000000	4.6085000	-11.0522170	0.0000000 # CA GRA
132	132	6	0.0000000	5.3174990	-9.8241920	0.0000000 # CA GRA
133	133	6	0.0000000	7.4445000	-11.0522170	0.0000000 # CA GRA
134	134	6	0.0000000	6.7355010	-9.8241920	0.0000000 # CA GRA
135	135	6	0.0000000	8.8624990	-11.0522170	0.0000000 # CA GRA
136	136	6	0.0000000	9.5714990	-9.8241920	0.0000000 # CA GRA
137	137	6	0.0000000	11.6985000	-11.0522170	0.0000000 # CA GRA
138	138	6	0.0000000	10.9895000	-9.8241920	0.0000000 # CA GRA
139	139	6	0.0000000	13.1164990	-11.0522170	0.0000000 # CA GRA
140	140	6	0.0000900	13.8255010	-9.8241920	0.0000000 # CA GRA
141	141	6	0.0145400	15.9525010	-11.0522170	0.0000000 # CA GRA
142	142	6	0.0024500	15.2435020	-9.8241920	0.0000000 # CA GRA
143	143	6	0.0694100	17.3705010	-11.0522170	0.0000000 # CA GRA
144	144	6	-0.0865000	18.0795000	-9.8241920	0.0000000 # CA GRA
145	145	6	0.0694100	-18.0795000	-8.5961690	0.0000000 # CA GRA
146	146	6	-0.0865000	-18.7885000	-7.3681440	0.0000000 # CA GRA
147	147	6	0.0145400	-16.6615000	-8.5961690	0.0000000 # CA GRA
148	148	6	0.0024500	-15.9525000	-7.3681440	0.0000000 # CA GRA
149	149	6	0.0000000	-13.8255000	-8.5961690	0.0000000 # CA GRA
150	150	6	0.0000900	-14.5345000	-7.3681440	0.0000000 # CA GRA
151	151	6	0.0000000	-12.4075000	-8.5961690	0.0000000 # CA GRA
152	152	6	0.0000000	-11.6985000	-7.3681440	0.0000000 # CA GRA
153	153	6	0.0000000	-9.5715000	-8.5961690	0.0000000 # CA GRA
154	154	6	0.0000000	-10.2805000	-7.3681440	0.0000000 # CA GRA
155	155	6	0.0000000	-8.1535000	-8.5961690	0.0000000 # CA GRA
156	156	6	0.0000000	-7.4445000	-7.3681440	0.0000000 # CA GRA
157	157	6	0.0000000	-5.3175000	-8.5961690	0.0000000 # CA GRA
158	158	6	0.0000000	-6.0265000	-7.3681440	0.0000000 # CA GRA
159	159	6	0.0000000	-3.8995000	-8.5961690	0.0000000 # CA GRA
160	160	6	0.0000000	-3.1905000	-7.3681440	0.0000000 # CA GRA
161	161	6	0.0000000	-1.0634990	-8.5961690	0.0000000 # CA GRA
162	162	6	0.0000000	-1.7725010	-7.3681440	0.0000000 # CA GRA
163	163	6	0.0000000	0.3545000	-8.5961690	0.0000000 # CA GRA
164	164	6	0.0000000	1.0635000	-7.3681440	0.0000000 # CA GRA
165	165	6	0.0000000	3.1905000	-8.5961690	0.0000000 # CA GRA
166	166	6	0.0000000	2.4815010	-7.3681440	0.0000000 # CA GRA
167	167	6	0.0000000	4.6085000	-8.5961690	0.0000000 # CA GRA
168	168	6	0.0000000	5.3174990	-7.3681440	0.0000000 # CA GRA
169	169	6	0.0000000	7.4445000	-8.5961690	0.0000000 # CA GRA
170	170	6	0.0000000	6.7355010	-7.3681440	0.0000000 # CA GRA
171	171	6	0.0000000	8.8624990	-8.5961690	0.0000000 # CA GRA
172	172	6	0.0000000	9.5714990	-7.3681440	0.0000000 # CA GRA
173	173	6	0.0000000	11.6985000	-8.5961690	0.0000000 # CA GRA
174	174	6	0.0000000	10.9895000	-7.3681440	0.0000000 # CA GRA
175	175	6	0.0000000	13.1164990	-8.5961690	0.0000000 # CA GRA
176	176	6	0.0000900	13.8255010	-7.3681440	0.0000000 # CA GRA
177	177	6	0.0145400	15.9525010	-8.5961690	0.0000000 # CA GRA
178	178	6	0.0024500	15.2435020	-7.3681440	0.0000000 # CA GRA
179	179	6	0.0694100	17.3705010	-8.5961690	0.0000000 # CA GRA
180	180	6	-0.0865000	18.0795000	-7.3681440	0.0000000 # CA GRA
181	181	6	0.0694100	-18.0795000	-6.1401210	0.0000000 # CA GRA
182	182	6	-0.0865000	-18.7885000	-4.9120960	0.0000000 # CA GRA
183	183	6	0.0145400	-16.6615000	-6.1401210	0.0000000 # CA GRA
184	184	6	0.0024500	-15.9525000	-4.9120960	0.0000000 # CA GRA
185	185	6	0.0000000	-13.8255000	-6.1401210	0.0000000 # CA GRA
186	186	6	0.0000900	-14.5345000	-4.9120960	0.0000000 # CA GRA
187	187	6	0.0000000	-12.4075000	-6.1401210	0.0000000 # CA GRA
188	188	6	0.0000000	-11.6985000	-4.9120960	0.0000000 # CA GRA
189	189	6	0.0000000	-9.5715000	-6.1401210	0.0000000 # CA GRA
190	190	6	0.0000000	-10.2805000	-4.9120960	0.0000000 # CA GRA
191	191	6	0.0000000	-8.1535000	-6.1401210	0.0000000 # CA GRA
192	192	6	0.0000000	-7.4445000	-4.9120960	0.0000000 # CA GRA
193	193	6	0.0000000	-5.3175000	-6.1401210	0.0000000 # CA GRA
194	194	6	0.0000000	-6.0265000	-4.9120960	0.0000000 # CA GRA
195	195	6	0.0000000	-3.8995000	-6.1401210	0.0000000 # CA GRA
196	196	6	0.0000000	-3.1905000	-4.9120960	0.0000000 # CA GRA
197	197	6	0.0000000	-1.0634990	-6.1401210	0.0000000 # CA GRA
198	198	6	0.0000000	-1.7725010	-4.9120960	0.0000000 # CA GRA
199	199	6	0.0000000	0.3545000	-6.1401210	0.0000000 # CA GRA
200	200	6	0.0000000	1.0635000	-4.9120960	0.0000000 # CA GRA
201	201	6	0.0000000	3.1905000	-6.1401210	0.0000000 # CA GRA
202	202	6	0.0000000	2.4815010	-4.9120960	0.0000000 # CA GRA
203	203	6	0.0000000	4.6085000	-6.1401210	0.0000000 # CA GRA
204	204	6	0.0000000	5.3174990	-4.9120960	0.0000000 # CA GRA
205	205	6	0.0000000	7.4445000	-6.1401210	0.0000000 # CA GRA
206	206	6	0.0000000	6.7355010	-4.9120960	0.0000000 # CA GRA
207	207	6	0.0000000	8.8624990	-6.1401210	0.0000000 # CA GRA
208	208	6	0.0000000	9.5714990	-4.9120960	0.0000000 # CA GRA
209	209	6	0.0000000	11.6985000	-6.1401210	0.0000000 # CA GRA
210	210	6	0.0000000	10.9895000	-4.9120960	0.0000000 # CA GRA
211	211	6	0.0000000	13.1164990	-6.1401210	0.0000000 # CA GRA
212	212	6	0.0000900	13.8255010	-4.9120960	0.0000000 # CA GRA
213	213	6	0.0145400	15.9525010	-6.1401210	0.0000000 # CA GRA
214	214	6	0.0024500	15.2435020	-4.9120960	0.0000000 # CA GRA
215	215	6	0.0694100	17.3705010	-6.1401210	0.0000000 # CA GRA
216	216	6	-0.0865000	18.0795000	-4.9120960	0.0000000 # CA GRA
217	217	6	0.0694100	-18.0795000	-3.6840730	0.0000000 # CA GRA
218	218	6	-0.0865000	-18.7885000	-2.4560480	0.0000000 # CA GRA
219	219	6	0.0145400	-16.6615000	-3.6840730	0.0000000 # CA GRA
220	220	6	0.0024500	-15.9525000	-2.4560480	0.0000000 # CA GRA
221	221	6	0.0000000	-13.8255000	-3.6840730	0.0000000 # CA GRA
222	222	6	0.0000900	-14.5345000	-2.4560480	0.0000000 # CA GRA
223	223	6	0.0000000	-12.4075000	-3.6840730	0.0000000 # CA GRA
224	224	6	0.0000000	-11.6985000	-2.4560480	0.0000000 # CA GRA
225	225	6	0.0000000	-9.5715000	-3.6840730	0.0000000 # CA GRA
226	226	6	0.0000000	-10.2805000	-2.4560480	0.0000000 # CA GRA
227	227	6	0.0000000	-8.1535000	-3.6840730	0.0000000 # CA GRA
228	228	6	0.0000000	-7.4445000	-2.4560480	0.0000000 # CA GRA
229	229	6	0.0000000	-5.3175000	-3.6840730	0.0000000 # CA GRA
230	230	6	0.0000000	-6.0265000	-2.4560480	0.0000000 # CA GRA
231	231	6	0.0000000	-3.8995000	-3.6840730	0.0000000 # CA GRA
232	232	6	0.0000000	-3.1905000	-2.4560480	0.0000000 # CA GRA
233	233	6	0.0000000	-1.0634990	-3.6840730	0.0000000 # CA GRA
234	234	6	0.0000000	-1.7725010	-2.4560480	0.0000000 # CA GRA
235	235	6	0.0000000	0.3545000	-3.6840730	0.0000000 # CA GRA
236	236	6	0.0000000	1.0635000	-2.4560480	0.0000000 # CA GRA
237	237	6	0.0000000	3.1905000	-3.6840730	0.0000000 # CA GRA
238	238	6	0.0000000	2.4815010	-2.4560480	0.0000000 # CA GRA
239	239	6	0.0000000	4.6085000	-3.6840730	0.0000000 # CA GRA
240	240	6	0.0000000	5.3174990	-2.4560480	0.0000000 # CA GRA
241	241	6	0.0000000	7.4445000	-3.6840730	0.0000000 # CA GRA
242	242	6	0.0000000	6.7355010	-2.4560480	0.0000000 # CA GRA
243	243	6	0.0000000	8.8624990	-3.6840730	0.0000000 # CA GRA
244	244	6	0.0000000	9.5714990	-2.4560480	0.0000000 # CA GRA
245	245	6	0.0000000	11.6985000	-3.6840730	0.0000000 # CA GRA
246	246	6	0.0000000	10.9895000	-2.4560480	0.0000000 # CA GRA
247	247	6	0.0000000	13.1164990	-3.6840730	0.0000000 # CA GRA
248	248	6	0.0000900	13.8255010	-2.4560480	0.0000000 # CA GRA
249	249	6	0.0145400	15.9525010	-3.6840730	0.0000000 # CA GRA
250	250	6	0.0024500	15.2435020	-2.4560480	0.0000000 # CA GRA
251	251	6	0.0694100	17.3705010	-3.6840730	0.0000000 # CA GRA
252	252	6	-0.0865000	18.0795000	-2.4560480	0.0000000 # CA GRA
253	253	6	0.0694100	-18.0795000	-1.2280240	0.0000000 # CA GRA
254	254	6	-0.0865000	-18.7885000	0.0000000	0.0000000 # CA GRA
255	255	6	0.0145400	-16.6615000	-1.2280240	0.0000000 # CA GRA
256	256	6	0.0024500	-15.9525000	0.0000000	0.0000000 # CA GRA
257	257	6	0.0000000	-13.8255000	-1.2280240	0.0000000 # CA GRA
258	258	6	0.0000900	-14.5345000	0.0000000	0.0000000 # CA GRA
259	259	6	0.0000000	-12.4075000	-1.2280240	0.0000000 # CA GRA
260	260	6	0.0000000	-11.6985000	0.0000000	0.0000000 # CA GRA
261	261	6	0.0000000	-9.5715000	-1.2280240	0.0000000 # CA GRA
262	262	6	0.0000000	-10.2805000	0.0000000	0.0000000 # CA GRA
263	263	6	0.0000000	-8.1535000	-1.2280240	0.0000000 # CA GRA
264	264	6	0.0000000	-7.4445000	0.0000000	0.0000000 # CA GRA
265	265	6	0.0000000	-5.3175000	-1.2280240	0.0000000 # CA GRA
266	266	6	0.0000000	-6.0265000	0.0000000	0.0000000 # CA GRA
267	267	6	0.0000000	-3.8995000	-1.2280240	0.0000000 # CA GRA
268	268	6	0.0000000	-3.1905000	0.0000000	0.0000000 # CA GRA
269	269	6	0.0000000	-1.0634990	-1.2280240	0.0000000 # CA GRA
270	270	6	0.0000000	-1.7725010	0.0000000	0.0000000 # CA GRA
271	271	6	0.0000000	0.3545000	-1.2280240	0.0000000 # CA GRA
272	272	6	0.0000000	1.0635000	0.0000000	0.0000000 # CA GRA
273	273	6	0.0000000	3.1905000	-1.2280240	0.0000000 # CA GRA
274	274	6	0.0000000	2.4815010	0.0000000	0.0000000 # CA GRA
275	275	6	0.0000000	4.6085000	-1.2280240	0.0000000 # CA GRA
276	276	6	0.0000000	5.3174990	0.0000000	0.0000000 # CA GRA
277	277	6	0.0000000	7.4445000	-1.2280240	0.0000000 # CA GRA
278	278	6	0.0000000	6.7355010	0.0000000	0.0000000 # CA GRA
279	279	6	0.0000000	8.8624990	-1.2280240	0.0000000 # CA GRA
280	280	6	0.0000000	9.5714990	0.0000000	0.0000000 # CA GRA
281	281	6	0.0000000	11.6985000	-1.2280240	0.0000000 # CA GRA
282	282	6	0.0000000	10.9895000	0.0000000	0.0000000 # CA GRA
283	283	6	0.0000000	13.1164990	-1.2280240	0.0000000 # CA GRA
284	284	6	0.0000900	13.8255010	0.0000000	0.0000000 # CA GRA
285	285	6	0.0145400	15.9525010	-1.2280240	0.0000000 # CA GRA
286	286	6	0.0024500	15.2435020	0.0000000	0.0000000 # CA GRA
287	287	6	0.0694100	17.3705010	-1.2280240	0.0000000 # CA GRA
288	288	6	-0.0865000	18.0795000	0.0000000	0.0000000 # CA GRA
289	289	6	0.0694100	-18.0795000	1.2280230	0.0000000 # CA GRA
290	290	6	-0.0865000	-18.7885000	2.4560470	0.0000000 # CA GRA
291	291	6	0.0145400	-16.6615000	1.2280230	0.0000000 # CA GRA
292	292	6	0.0024500	-15.9525000	2.4560470	0.0000000 # CA GRA
293	293	6	0.0000000	-13.8255000	1.2280230	0.0000000 # CA GRA
294	294	6	0.0000900	-14.5345000	2.4560470	0.0000000 # CA GRA
295	295	6	0.0000000	-12.4075000	1.2280230	0.0000000 # CA GRA
296	296	6	0.0000000	-11.6985000	2.4560470	0.0000000 # CA GRA
297	297	6	0.0000000	-9.5715000	1.2280230	0.0000000 # CA GRA
298	298	6	0.0000000	-10.2805000	2.4560470	0.0000000 # CA GRA
299	299	6	0.0000000	-8.1535000	1.2280230	0.0000000 # CA GRA
300	300	6	0.0000000	-7.4445000	2.4560470	0.0000000 # CA GRA
301	301	6	0.0000000	-5.3175000	1.2280230	0.0000000 # CA GRA
302	302	6	0.0000000	-6.0265000	2.4560470	0.0000000 # CA GRA
303	303	6	0.0000000	-3.8995000	1.2280230	0.0000000 # CA GRA
304	304	6	0.0000000	-3.1905000	2.4560470	0.0000000 # CA GRA
305	305	6	0.0000000	-1.0634990	1.2280230	0.0000000 # CA GRA
306	306	6	0.0000000	-1.7725010	2.4560470	0.0000000 # CA GRA
307	307	6	0.0000000	0.3545000	1.2280230	0.0000000 # CA GRA
308	308	6	0.0000000	1.0635000	2.4560470	0.0000000 # CA GRA
309	309	6	0.0000000	3.1905000	1.2280230	0.0000000 # CA GRA
310	310	6	0.0000000	2.4815010	2.4560470	0.0000000 # CA GRA
311	311	6	0.0000000	4.6085000	1.2280230	0.0000000 # CA GRA
312	312	6	0.0000000	5.3174990	2.4560470	0.0000000 # CA GRA
313	313	6	0.0000000	7.4445000	1.2280230	0.0000000 # CA GRA
314	314	6	0.0000000	6.7355010	2.4560470	0.0000000 # CA GRA
315	315	6	0.0000000	8.8624990	1.2280230	0.0000000 # CA GRA
316	316	6	0.0000000	9.5714990	2.4560470	0.0000000 # CA GRA
317	317	6	0.0000000	11.6985000	1.2280230	0.0000000 # CA GRA
318	318	6	0.0000000	10.9895000	2.4560470	0.0000000 # CA GRA
319	319	6	0.0000000	13.1164990	1.2280230	0.0000000 # CA GRA
320	320	6	0.0000900	13.8255010	2.4560470	0.0000000 # CA GRA
321	321	6	0.0145400	15.9525010	1.2280230	0.0000000 # CA GRA
322	322	6	0.0024500	15.2435020	2.4560470	0.0000000 # CA GRA
323	323	6	0.0694100	17.3705010	1.2280230	0.0000000 # CA GRA
324	324	6	-0.0865000	18.0795000	2.4560470	0.0000000 # CA GRA
325	325	6	0.0694100	-18.0795000	3.6840720	0.0000000 # CA GRA
326	326	6	-0.0865000	-18.7885000	4.9120960	0.0000000 # CA GRA
327	327	6	0.0145400	-16.6615000	3.6840720	0.0000000 # CA GRA
328	328	6	0.0024500	-15.9525000	4.9120960	0.0000000 # CA GRA
329	329	6	0.0000000	-13.8255000	3.6840720	0.0000000 # CA GRA
330	330	6	0.0000900	-14.5345000	4.9120960	0.0000000 # CA GRA
331	331	6	0.0000000	-12.4075000	3.6840720	0.0000000 # CA GRA
332	332	6	0.0000000	-11.6985000	4.9120960	0.0000000 # CA GRA
333	333	6	0.0000000	-9.5715000	3.6840720	0.0000000 # CA GRA
334	334	6	0.0000000	-10.2805000	4.9120960	0.0000000 # CA GRA
335	335	6	0.0000000	-8.1535000	3.6840720	0.0000000 # CA GRA
336	336	6	0.0000000	-7.4445000	4.9120960	0.0000000 # CA GRA
337	337	6	0.0000000	-5.3175000	3.6840720	0.0000000 # CA GRA
338	338	6	0.0000000	-6.0265000	4.9120960	0.0000000 # CA GRA
339	339	6	0.0000000	-3.8995000	3.6840720	0.0000000 # CA GRA
340	340	6	0.0000000	-3.1905000	4.9120960	0.0000000 # CA GRA
341	341	6	0.0000000	-1.0634990	3.6840720	0.0000000 # CA GRA
342	342	6	0.0000000	-1.7725010	4.9120960	0.0000000 # CA GRA
343	343	6	0.0000000	0.3545000	3.6840720	0.0000000 # CA GRA
344	344	6	0.0000000	1.0635000	4.9120960	0.0000000 # CA GRA
345	345	6	0.0000000	3.1905000	3.6840720	0.0000000 # CA GRA
346	346	6	0.0000000	2.4815010	4.9120960	0.0000000 # CA GRA
347	347	6	0.0000000	4.6085000	3.6840720	0.0000000 # CA GRA
348	348	6	0.0000000	5.3174990	4.9120960	0.0000000 # CA GRA
349	349	6	0.0000000	7.4445000	3.6840720	0.0000000 # CA GRA
350	350	6	0.0000000	6.7355010	4.9120960	0.0000000 # CA GRA
351	351	6	0.0000000	8.8624990	3.6840720	0.0000000 # CA GRA
352	352	6	0.0000000	9.5714990	4.9120960	0.0000000 # CA GRA
353	353	6	0.0000000	11.6985000	3.6840720	0.0000000 # CA GRA
354	354	6	0.0000000	10.9895000	4.9120960	0.0000000 # CA GRA
355	355	6	0.0000000	13.1164990	3.6840720	0.0000000 # CA GRA
356	356	6	0.0000900	13.8255010	4.9120960	0.0000000 # CA GRA
357	357	6	0.0145400	15.9525010	3.6840720	0.0000000 # CA GRA
358	358	6	0.0024500	15.2435020	4.9120960	0.0000000 # CA GRA
359	359	6	0.0694100	17.3705010	3.6840720	0.0000000 # CA GRA
360	360	6	-0.0865000	18.0795000	4.9120960	0.0000000 # CA GRA
361	361	6	0.0694100	-18.0795000	6.1401190	0.0000000 # CA GRA
362	362	6	-0.0865000	-18.7885000	7.3681430	0.0000000 # CA GRA
363	363	6	0.0145400	-16.6615000	6.1401190	0.0000000 # CA GRA
364	364	6	0.0024500	-15.9525000	7.3681430	0.0000000 # CA GRA
365	365	6	0.0000000	-13.8255000	6.1401190	0.0000000 # CA GRA
366	366	6	0.0000900	-14.5345000	7.3681430	0.0000000 # CA GRA
367	367	6	0.0000000	-12.4075000	6.1401190	0.0000000 # CA GRA
368	368	6	0.0000000	-11.6985000	7.3681430	0.0000000 # CA GRA
369	369	6	0.0000000	-9.5715000	6.1401190	0.0000000 # CA GRA
370	370	6	0.0000000	-10.2805000	7.3681430	0.0000000 # CA GRA
371	371	6	0.0000000	-8.1535000	6.1401190	0.0000000 # CA GRA
372	372	6	0.0000000	-7.4445000	7.3681430	0.0000000 # CA GRA
373	373	6	0.0000000	-5.3175000	6.1401190	0.0000000 # CA GRA
374	374	6	0.0000000	-6.0265000	7.3681430	0.0000000 # CA GRA
375	375	6	0.0000000	-3.8995000	6.1401190	0.0000000 # CA GRA
376	376	6	0.0000000	-3.1905000	7.3681430	0.0000000 # CA GRA
377	377	6	0.0000000	-1.0634990	6.1401190	0.0000000 # CA GRA
378	378	6	0.0000000	-1.7725010	7.3681430	0.0000000 # CA GRA
379	379	6	0.0000000	0.3545000	6.1401190	0.0000000 # CA GRA
380	380	6	0.0000000	1.0635000	7.3681430	0.0000000 # CA GRA
381	381	6	0.0000000	3.1905000	6.1401190	0.0000000 # CA GRA
382	382	6	0.0000000	2.4815010	7.3681430	0.0000000 # CA GRA
383	383	6	0.0000000	4.6085000	6.1401190	0.0000000 # CA GRA
384	384	6	0.0000000	5.3174990	7.3681430	0.0000000 # CA GRA
385	385	6	0.0000000	7.4445000	6.1401190	0.0000000 # CA GRA
386	386	6	0.0000000	6.7355010	7.3681430	0.0000000 # CA GRA
387	387	6	0.0000000	8.8624990	6.1401190	0.0000000 # CA GRA
388	388	6	0.0000000	9.5714990	7.3681430	0.0000000 # CA GRA
389	389	6	0.0000000	11.6985000	6.1401190	0.0000000 # CA GRA
390	390	6	0.0000000	10.9895000	7.3681430	0.0000000 # CA GRA
391	391	6	0.0000000	13.1164990	6.1401190	0.0000000 # CA GRA
392	392	6	0.0000900	13.8255010	7.3681430	0.0000000 # CA GRA
393	393	6	0.0145400	15.9525010	6.1401190	0.0000000 # CA GRA
394	394	6	0.0024500	15.2435020	7.3681430	0.0000000 # CA GRA
395	395	6	0.0694100	17.3705010	6.1401190	0.0000000 # CA GRA
396	396	6	-0.0865000	18.0795000	7.3681430	0.0000000 # CA GRA
397	397	6	0.0694100	-18.0795000	8.5961680	0.0000000 # CA GRA
398	398	6	-0.0865000	-18.7885000	9.8241920	0.0000000 # CA GRA
399	399	6	0.0145400	-16.6615000	8.5961680	0.0000000 # CA GRA
400	400	6	0.0024500	-15.9525000	9.8241920	0.0000000 # CA GRA
401	401	6	0.0000000	-13.8255000	8.5961680	0.0000000 # CA GRA
402	402	6	0.0000900	-14.5345000	9.8241920	0.0000000 # CA GRA
403	403	6	0.0000000	-12.4075000	8.5961680	0.0000000 # CA GRA
404	404	6	0.0000000	-11.6985000	9.8241920	0.0000000 # CA GRA
405	405	6	0.0000000	-9.5715000	8.5961680	0.0000000 # CA GRA
406	406	6	0.0000000	-10.2805000	9.8241920	0.0000000 # CA GRA
407	407	6	0.0000000	-8.1535000	8.5961680	0.0000000 # CA GRA
408	408	6	0.0000000	-7.4445000	9.8241920	0.0000000 # CA GRA
409	409	6	0.0000000	-5.3175000	8.5961680	0.0000000 # CA GRA
410	410	6	0.0000000	-6.0265000	9.8241920	0.0000000 # CA GRA
411	411	6	0.0000000	-3.8995000	8.5961680	0.0000000 # CA GRA
412	412	6	0.0000000	-3.1905000	9.8241920	0.0000000 # CA GRA
413	413	6	0.0000000	-1.0634990	8.5961680	0.0000000 # CA GRA
414	414	6	0.0000000	-1.7725010	9.8241920	0.0000000 # CA GRA
415	415	6	0.0000000	0.3545000	8.5961680	0.0000000 # CA GRA
416	416	6	0.0000000	1.0635000	9.8241920	0.0000000 # CA GRA
417	417	6	0.0000000	3.1905000	8.5961680	0.0000000 # CA GRA
418	418	6	0.0000000	2.4815010	9.8241920	0.0000000 # CA GRA
419	419	6	0.0000000	4.6085000	8.5961680	0.0000000 # CA GRA
420	420	6	0.0000000	5.3174990	9.8241920	0.0000000 # CA GRA
421	421	6	0.0000000	7.4445000	8.5961680	0.0000000 # CA GRA
422	422	6	0.0000000	6.7355010	9.8241920	0.0000000 # CA GRA
423	423	6	0.0000000	8.8624990	8.5961680	0.0000000 # CA GRA
424	424	6	0.0000000	9.5714990	9.8241920	0.0000000 # CA GRA
425	425	6	0.0000000	11.6985000	8.5961680	0.0000000 # CA GRA
426	426	6	0.0000000	10.9895000	9.8241920	0.0000000 # CA GRA
427	427	6	0.0000000	13.1164990	8.5961680	0.0000000 # CA GRA
428	428	6	0.0000900	13.8255010	9.8241920	0.0000000 # CA GRA
429	429	6	0.0145400	15.9525010	8.5961680	0.0000000 # CA GRA
430	430	6	0.0024500	15.2435020	9.8241920	0.0000000 # CA GRA
431	431	6	0.0694100	17.3705010	8.5961680	0.0000000 # CA GRA
432	432	6	-0.0865000	18.0795000	9.8241920	0.0000000 # CA GRA
433	433	6	0.0694100	-18.0795000	11.0522150	0.0000000 # CA GRA
434	434	6	-0.0865400	-18.7885000	12.2802390	0.0000000 # CA GRA
435	435	6	0.0145400	-16.6615000	11.0522150	0.0000000 # CA GRA
436	436	6	0.0024800	-15.9525000	12.2802390	0.0000000 # CA GRA
437	437	6	0.0000000	-13.8255000	11.0522150	0.0000000 # CA GRA
438	438	6	0.0001100	-14.5345000	12.2802390	0.0000000 # CA GRA
439	439	6	0.0000000	-12.4075000	11.0522150	0.0000000 # CA GRA
440	440	6	0.0000200	-11.6985000	12.2802390	0.0000000 # CA GRA
441	441	6	0.0000000	-9.5715000	11.0522150	0.0000000 # CA GRA
442	442	6	0.0000200	-10.2805000	12.2802390	0.0000000 # CA GRA
443	443	6	0.0000000	-8.1535000	11.0522150	0.0000000 # CA GRA
444	444	6	0.0000200	-7.4445000	12.2802390	0.0000000 # CA GRA
445	445	6	0.0000000	-5.3175000	11.0522150	0.0000000 # CA GRA
446	446	6	0.0000200	-6.0265000	12.2802390	0.0000000 # CA GRA
447	447	6	0.0000000	-3.8995000	11.0522150	0.0000000 # CA GRA
448	448	6	0.0000200	-3.1905000	12.2802390	0.0000000 # CA GRA
449	449	6	0.0000000	-1.0634990	11.0522150	0.0000000 # CA GRA
450	450	6	0.0000200	-1.7725010	12.2802390	0.0000000 # CA GRA
451	451	6	0.0000000	0.3545000	11.0522150	0.0000000 # CA GRA
452	452	6	0.0000200	1.0635000	12.2802390	0.0000000 # CA GRA
453	453	6	0.0000000	3.1905000	11.0522150	0.0000000 # CA GRA
454	454	6	0.0000200	2.4815010	12.2802390	0.0000000 # CA GRA
455	455	6	0.0000000	4.6085000	11.0522150	0.0000000 # CA GRA
456	456	6	0.0000200	5.3174990	12.2802390	0.0000000 # CA GRA
457	457	6	0.0000000	7.4445000	11.0522150	0.0000000 # CA GRA
458	458	6	0.0000200	6.7355010	12.2802390	0.0000000 # CA GRA
459	459	6	0.0000000	8.8624990	11.0522150	0.0000000 # CA GRA
460	460	6	0.0000200	9.5714990	12.2802390	0.0000000 # CA GRA
461	461	6	0.0000000	11.6985000	11.0522150	0.0000000 # CA GRA
462	462	6	0.0000200	10.9895000	12.2802390	0.0000000 # CA GRA
463	463	6	0.0000000	13.1164990	11.0522150	0.0000000 # CA GRA
464	464	6	0.0001100	13.8255010	12.2802390	0.0000000 # CA GRA
465	465	6	0.0145400	15.9525010	11.0522150	0.0000000 # CA GRA
466	466	6	0.0024800	15.2435020	12.2802390	0.0000000 # CA GRA
467	467	6	0.0694100	17.3705010	11.0522150	0.0000000 # CA GRA
468	468	6	-0.0865400	18.0795000	12.2802390	0.0000000 # CA GRA
469	469	6	0.0684800	-18.0795000	13.5082640	0.0000000 # CA GRA
470	470	6	-0.0981400	-18.7885000	14.7362860	0.0000000 # CA GRA
471	471	6	0.0151300	-16.6615000	13.5082640	0.0000000 # CA GRA
472	472	6	0.0099700	-15.9525000	14.7362860	0.0000000 # CA GRA
473	473	6	0.0007000	-13.8255000	13.5082640	0.0000000 # CA GRA
474	474	6	0.0091400	-14.5345000	14.7362860	0.0000000 # CA GRA
475	475	6	0.0007000	-12.4075000	13.5082640	0.0000000 # CA GRA
476	476	6	0.0091000	-11.6985000	14.7362860	0.0000000 # CA GRA
477	477	6	0.0007000	-9.5715000	13.5082640	0.0000000 # CA GRA
478	478	6	0.0091000	-10.2805000	14.7362860	0.0000000 # CA GRA
479	479	6	0.0007000	-8.1535000	13.5082640	0.0000000 # CA GRA
480	480	6	0.0091000	-7.4445000	14.7362860	0.0000000 # CA GRA
481	481	6	0.0007000	-5.3175000	13.5082640	0.0000000 # CA GRA
482	482	6	0.0091000	-6.0265000	14.7362860	0.0000000 # CA GRA