LAMMPS data file using Dreiding for structure

498  atoms
497  bonds
976  angles
1383  dihedrals

5  atom types
5  bond types
3  angle types
15  dihedral types

0.0000000000000000e+00 6.3375999999999998e+01 xlo xhi
0.0000000000000000e+00 5.0112000000000002e+01 ylo yhi
0.0000000000000000e+00 3.8639000000000003e+01 zlo zhi


Masses

  2     12.011000     # C_3
  3     15.999400     # O_3
  4     15.999400     # O_2
  1     18.998400     # F_
  5     32.060000     # S_3

Atoms

     1   1   1   -0.19227     11.29500000     29.97000000     16.77300000   0   0   0
     2   1   1   -0.19227     31.92400000     18.16800000     14.17500000   0   0   0
     3   1   1   -0.16086     17.87600000     24.28600000     22.17200000   0   0   0
     4   1   1   -0.19227     40.21100000     27.73400000     17.43000000   0   0   0
     5   1   1   -0.19227     42.74400000     17.78400000     23.32500000   0   0   0
     6   1   1   -0.19227     24.93700000     27.13900000     22.99500000   0   0   0
     7   1   1   -0.19227     44.96500000     21.24300000     13.42100000   0   0   0
     8   1   1   -0.19227     23.97700000     33.22200000     15.66100000   0   0   0
     9   1   1   -0.19227     31.42100000     20.28900000     13.94600000   0   0   0
    10   1   1   -0.19227     41.20700000     29.33900000     18.59800000   0   0   0
    11   1   1   -0.19227     25.10000000     35.06000000     15.12300000   0   0   0
    12   1   1   -0.19227     24.31800000     28.22500000     24.81100000   0   0   0
    13   1   1   -0.19227     10.35200000     30.23600000     18.67500000   0   0   0
    14   1   1   -0.19227     41.25600000     18.41600000     21.87000000   0   0   0
    15   1   1   -0.19227     44.05300000     21.95500000     11.49000000   0   0   0
    16   1   1   -0.16086     18.11400000     23.31300000     24.24800000   0   0   0
    17   1   1   -0.16086     16.41300000     22.80600000     22.82100000   0   0   0
    18   1   1   -0.19226     24.71800000     33.76400000     18.51500000   0   0   0
    19   1   1   -0.19226     34.00900000     21.05100000     13.20900000   0   0   0
    20   1   1   -0.19226     25.56000000     29.41900000     21.56700000   0   0   0
    21   1   1   -0.18904     18.11900000     21.72800000     21.00300000   0   0   0
    22   1   1   -0.19226     11.63500000     32.97300000     18.90000000   0   0   0
    23   1   1   -0.19226     40.50700000     18.94600000     24.24600000   0   0   0
    24   1   1   -0.19226     40.25200000     26.19400000     19.98500000   0   0   0
    25   1   1   -0.19226     42.45000000     22.04500000     14.70200000   0   0   0
    26   1   1   -0.19226     25.40300000     30.60700000     23.35100000   0   0   0
    27   1   1   -0.19226     41.13600000     27.96700000     20.93400000   0   0   0
    28   1   1   -0.19226     10.00000000     32.52300000     17.58400000   0   0   0
    29   1   1   -0.19226     26.01500000     35.34400000     17.65500000   0   0   0
    30   1   1   -0.19226     41.57500000     22.54800000     12.73500000   0   0   0
    31   1   1   -0.19226     40.64600000     16.73100000     24.72600000   0   0   0
    32   1   1   -0.18904     18.43600000     20.73100000     22.90000000   0   0   0
    33   1   1   -0.19226     33.11800000     19.46700000     12.04900000   0   0   0
    34   1   1   -0.19226     26.02200000     31.78500000     16.72000000   0   0   0
    35   1   1   -0.19226     35.78100000     19.32200000     12.59800000   0   0   0
    36   1   1   -0.19211     20.28200000     23.34500000     21.44300000   0   0   0
    37   1   1   -0.19226     42.25100000     26.00000000     18.20700000   0   0   0
    38   1   1   -0.19226     44.63300000     23.89000000     14.04900000   0   0   0
    39   1   1   -0.19226     22.97700000     30.00600000     21.22300000   0   0   0
    40   1   1   -0.19226     12.71100000     32.03400000     15.75900000   0   0   0
    41   1   1   -0.19226     38.52100000     18.16100000     22.24400000   0   0   0
    42   1   1   -0.19226     43.31700000     27.60800000     18.85900000   0   0   0
    43   1   1   -0.19226     43.41500000     24.41500000     12.23300000   0   0   0
    44   1   1   -0.19226     38.49800000     16.13100000     23.06300000   0   0   0
    45   1   1   -0.19226     35.45700000     19.17700000     14.68600000   0   0   0
    46   1   1   -0.19226     27.15700000     33.45500000     15.93900000   0   0   0
    47   1   1   -0.19226     11.02400000     33.47900000     15.57700000   0   0   0
    48   1   1   -0.19226     22.70900000     28.41700000     22.47600000   0   0   0
    49   1   1   -0.19211     20.69400000     22.73300000     23.39500000   0   0   0
    50   1   1   -0.19226     13.99200000     33.50300000     17.66200000   0   0   0
    51   1   1   -0.19226     37.71300000     19.47400000     24.54100000   0   0   0
    52   1   1   -0.19225     20.65400000     20.75800000     20.37100000   0   0   0
    53   1   1   -0.19226     26.81900000     32.27400000     19.20300000   0   0   0
    54   1   1   -0.19226     42.56800000     24.65700000     15.81000000   0   0   0
    55   1   1   -0.19226     34.20400000     16.86700000     12.19600000   0   0   0
    56   1   1   -0.19226     22.75700000     31.92800000     23.06200000   0   0   0
    57   1   1   -0.19226     42.10400000     25.16300000     21.35900000   0   0   0
    58   1   1   -0.19226     12.47100000     35.10400000     17.45000000   0   0   0
    59   1   1   -0.19226     22.88800000     30.43700000     24.76300000   0   0   0
    60   1   1   -0.19225     21.01100000     19.89000000     22.29100000   0   0   0
    61   1   1   -0.19226     43.88400000     26.38000000     21.18200000   0   0   0
    62   1   1   -0.19226     33.99700000     16.75500000     14.42400000   0   0   0
    63   1   1   -0.19226     41.34700000     24.89100000     13.83200000   0   0   0
    64   1   1   -0.19226     27.84300000     34.13400000     18.85200000   0   0   0
    65   1   1   -0.19226     38.22900000     17.90200000     25.85500000   0   0   0
    66   1   1   -0.19226     20.20400000     31.38400000     24.18400000   0   0   0
    67   1   1   -0.19226     23.38400000     20.12200000     21.08200000   0   0   0
    68   1   1   -0.19226     29.65900000     32.94700000     17.12100000   0   0   0
    69   1   1   -0.19226     35.56500000     17.94200000     25.52600000   0   0   0
    70   1   1   -0.19226     44.74200000     24.02400000     20.76900000   0   0   0
    71   1   1   -0.19226     42.19100000     27.20100000     15.20400000   0   0   0
    72   1   1   -0.19226     36.00900000     15.17600000     13.71500000   0   0   0
    73   1   1   -0.19226     14.57700000     35.96000000     16.27000000   0   0   0
    74   1   1   -0.19226     13.09500000     35.44800000     14.88300000   0   0   0
    75   1   1   -0.19226     44.65900000     24.77700000     18.89500000   0   0   0
    76   1   1   -0.19226     36.26300000     16.24900000     24.53500000   0   0   0
    77   1   1   -0.19226     28.77100000     30.89600000     17.67700000   0   0   0
    78   1   1   -0.19226     42.94900000     27.01200000     13.19700000   0   0   0
    79   1   1   -0.19226     36.83500000     16.76300000     14.72100000   0   0   0
    80   1   1   -0.19226     23.07600000     21.33100000     22.94700000   0   0   0
    81   1   1   -0.19226     20.54800000     29.17300000     23.86100000   0   0   0
    82   1   1   -0.19226     45.45900000     26.25600000     14.24200000   0   0   0
    83   1   1   -0.19226     37.85000000     17.94500000     12.56900000   0   0   0
    84   1   1   -0.19226     34.21700000     17.28100000     23.28000000   0   0   0
    85   1   1   -0.19226     41.82700000     23.52800000     18.90400000   0   0   0
    86   1   1   -0.19226     29.28400000     31.51300000     20.45500000   0   0   0
    87   1   1   -0.19226     15.71400000     35.04500000     14.06600000   0   0   0
    88   1   1   -0.19226     22.87200000     23.50300000     21.36400000   0   0   0
    89   1   1   -0.19226     20.37500000     29.66400000     21.04700000   0   0   0
    90   1   1   -0.19226     44.77200000     26.24000000     16.22400000   0   0   0
    91   1   1   -0.19226     36.66300000     16.72500000     11.16500000   0   0   0
    92   1   1   -0.19226     42.54400000     22.50300000     20.75700000   0   0   0
    93   1   1   -0.19226     35.95900000     17.44500000     22.00300000   0   0   0
    94   1   1   -0.19226     30.02600000     33.55600000     19.78000000   0   0   0
    95   1   1   -0.19226     14.59300000     33.24000000     13.94800000   0   0   0
    96   1   1   -0.19226     20.70000000     31.75400000     21.30000000   0   0   0
    97   1   1   -0.19226     23.01300000     22.28400000     19.50800000   0   0   0
    98   1   1   -0.19226     43.77200000     29.04800000     15.78900000   0   0   0
    99   1   1   -0.19226     38.01800000     14.45600000     12.20500000   0   0   0
   100   1   1   -0.19226     36.11900000     20.05300000     22.47800000   0   0   0
   101   1   1   -0.19226     44.83700000     21.66500000     19.30900000   0   0   0
   102   1   1   -0.19226     32.12900000     32.38400000     18.48100000   0   0   0
   103   1   1   -0.19226     15.84000000     32.30600000     16.26500000   0   0   0
   104   1   1   -0.19226     25.65100000     21.40000000     20.40800000   0   0   0
   105   1   1   -0.19226     18.12900000     31.23300000     20.53700000   0   0   0
   106   1   1   -0.19226     25.48800000     22.45700000     22.20300000   0   0   0
   107   1   1   -0.19226     44.66600000     28.96900000     13.88500000   0   0   0
   108   1   1   -0.19226     16.79100000     34.19800000     16.61300000   0   0   0
   109   1   1   -0.19226     39.14500000     15.69800000     13.61500000   0   0   0
   110   1   1   -0.19226     44.00000000     22.53900000     17.39500000   0   0   0
   111   1   1   -0.19226     31.16500000     30.42700000     18.65800000   0   0   0
   112   1   1   -0.19226     18.21900000     32.14500000     22.31000000   0   0   0
   113   1   1   -0.19226     34.66800000     20.14200000     24.06700000   0   0   0
   114   1   1   -0.19226     16.92600000     32.40500000     13.55500000   0   0   0
   115   1   1   -0.19226     34.06400000     19.03700000     20.85200000   0   0   0
   116   1   1   -0.19226     25.20100000     23.91800000     18.93700000   0   0   0
   117   1   1   -0.19226     17.84900000     29.79500000     23.60000000   0   0   0
   118   1   1   -0.19226     42.18200000     20.32200000     19.47100000   0   0   0
   119   1   1   -0.19226     46.41500000     28.09800000     16.88500000   0   0   0
   120   1   1   -0.19226     39.02400000     15.43200000     10.04900000   0   0   0
   121   1   1   -0.19226     32.03000000     32.45900000     21.44200000   0   0   0
   122   1   1   -0.19226     25.19400000     24.91300000     20.89800000   0   0   0
   123   1   1   -0.19226     16.11300000     30.41300000     22.39400000   0   0   0
   124   1   1   -0.19226     18.30700000     33.99200000     14.08800000   0   0   0
   125   1   1   -0.19226     32.62600000     19.39500000     22.43500000   0   0   0
   126   1   1   -0.19226     39.85700000     17.16700000     10.98900000   0   0   0
   127   1   1   -0.19226     47.21400000     28.05300000     15.04900000   0   0   0
   128   1   1   -0.19226     31.44100000     30.30500000     21.33100000   0   0   0
   129   1   1   -0.19226     41.67900000     21.18800000     17.62300000   0   0   0
   130   1   1   -0.19226     27.69400000     24.98800000     19.62700000   0   0   0
   131   1   1   -0.19226     16.44400000     27.63100000     22.18800000   0   0   0
   132   1   1   -0.19226     19.41500000     31.56800000     14.12700000   0   0   0
   133   1   1   -0.19226     41.55100000     14.94500000     10.00200000   0   0   0
   134   1   1   -0.19226     34.06700000     30.55500000     21.73100000   0   0   0
   135   1   1   -0.19226     34.78100000     21.70500000     20.68800000   0   0   0
   136   1   1   -0.19226     47.64000000     30.36100000     16.85200000   0   0   0
   137   1   1   -0.19226     44.68000000     19.21900000     18.17100000   0   0   0
   138   1   1   -0.19226     17.84300000     30.84300000     15.45900000   0   0   0
   139   1   1   -0.19226     27.84100000     22.84400000     19.63600000   0   0   0
   140   1   1   -0.19226     18.52800000     27.82300000     21.91400000   0   0   0
   141   1   1   -0.19226     34.29900000     32.04700000     20.08000000   0   0   0
   142   1   1   -0.19226     45.52200000     30.76700000     16.78100000   0   0   0
   143   1   1   -0.19226     33.54600000     22.18800000     22.44500000   0   0   0
   144   1   1   -0.19226     40.68800000     13.71000000     11.46500000   0   0   0
   145   1   1   -0.19226     43.83500000     20.05200000     16.36300000   0   0   0
   146   1   1   -0.19226     20.28100000     31.16500000     16.72700000   0   0   0
   147   1   1   -0.19226     29.45700000     24.03500000     21.34900000   0   0   0
   148   1   1   -0.19226     16.92600000     26.92300000     19.79700000   0   0   0
   149   1   1   -0.19226     33.47400000     29.89100000     18.15400000   0   0   0
   150   1   1   -0.19226     43.24700000     14.53400000     12.12500000   0   0   0
   151   1   1   -0.19226     47.07400000     32.56200000     15.31800000   0   0   0
   152   1   1   -0.19226     32.27800000     23.00100000     20.20600000   0   0   0
   153   1   1   -0.19226     43.32000000     17.43700000     16.60900000   0   0   0
   154   1   1   -0.19226     28.00900000     22.77900000     22.23300000   0   0   0
   155   1   1   -0.19226     18.11500000     28.56100000     19.41300000   0   0   0
   156   1   1   -0.19226     18.58800000     32.42300000     17.53400000   0   0   0
   157   1   1   -0.19226     33.07700000     28.62800000     19.80300000   0   0   0
   158   1   1   -0.19226     41.71300000     14.62000000     13.52600000   0   0   0
   159   1   1   -0.19226     31.29500000     21.43000000     21.11300000   0   0   0
   160   1   1   -0.19226     45.63100000     31.44400000     14.17100000   0   0   0
   161   1   1   -0.19226     41.41200000     18.33400000     16.68300000   0   0   0
   162   1   1   -0.19227     35.73700000     28.75900000     20.57100000   0   0   0
   163   1   1   -0.19227     21.23900000     33.14600000     15.25100000   0   0   0
   164   1   1   -0.19227     15.86400000     30.29600000     19.46300000   0   0   0
   165   1   1   -0.19227     41.11800000     17.97700000     19.30200000   0   0   0
   166   1   1   -0.19227     47.42100000     29.85100000     12.84400000   0   0   0
   167   1   1   -0.19227     41.61700000     17.46800000     13.26200000   0   0   0
   168   1   1   -0.19227     31.98800000     19.64600000     19.00300000   0   0   0
   169   1   1   -0.19227     26.79200000     24.86800000     23.48200000   0   0   0
   170   1   1   -0.19227     47.80200000     31.96400000     12.64900000   0   0   0
   171   1   1   -0.19227     43.57900000     16.72100000     13.65600000   0   0   0
   172   1   1   -0.19227     31.09600000     21.56500000     18.34100000   0   0   0
   173   1   1   -0.19227     41.79100000     16.13500000     18.35400000   0   0   0
   174   1   1   -0.19227     35.40600000     28.04100000     18.57700000   0   0   0
   175   1   1   -0.19227     19.79000000     34.61500000     15.98300000   0   0   0
   176   1   1   -0.19227     29.01900000     25.01800000     23.75600000   0   0   0
   177   1   1   -0.19227     15.79700000     28.66100000     17.99700000   0   0   0
   178   1   1   -0.19250     49.57000000     31.52200000     15.00500000   0   0   0
   179   1   1   -0.19264     44.31600000     16.75400000     11.01100000   0   0   0
   180   1   1   -0.19264     33.75500000     22.60500000     18.05900000   0   0   0
   181   1   1   -0.19264     44.45100000     16.68300000     19.16500000   0   0   0
   182   1   1   -0.19264     36.01500000     31.14800000     17.86400000   0   0   0
   183   1   1   -0.19264     20.66100000     33.53400000     18.80100000   0   0   0
   184   1   1   -0.19264     29.07500000     26.72000000     21.64700000   0   0   0
   185   1   1   -0.19264     14.31600000     27.05700000     19.81400000   0   0   0
   186   1   1   -0.19250     49.54500000     29.52200000     14.48900000   0   0   0
   187   1   1   -0.19264     42.38100000     17.55700000     10.40700000   0   0   0
   188   1   1   -0.19264     43.68600000     18.23700000     20.52500000   0   0   0
   189   1   1   -0.19264     34.42800000     20.52100000     18.19300000   0   0   0
   190   1   1   -0.19264     36.91500000     31.04100000     19.86800000   0   0   0
   191   1   1   -0.19264     22.35600000     32.77100000     17.78800000   0   0   0
   192   1   1   -0.19264     14.08900000     28.77700000     21.05600000   0   0   0
   193   1   1   -0.19264     27.02300000     26.84600000     21.36000000   0   0   0
   194   1   1   -0.19498     51.64400000     30.56200000     13.50800000   0   0   0
   195   1   1   -0.19816     44.25900000     19.58200000     10.52200000   0   0   0
   196   1   1   -0.19816     34.08700000     21.53100000     15.67200000   0   0   0
   197   1   1   -0.19816     44.07100000     16.01400000     21.86800000   0   0   0
   198   1   1   -0.19816     38.62200000     30.61700000     17.65200000   0   0   0
   199   1   1   -0.19816     22.62400000     35.27800000     18.89400000   0   0   0
   200   1   1   -0.19816     28.03700000     29.15900000     22.77400000   0   0   0
   201   1   1   -0.19816     11.93000000     28.34800000     19.55700000   0   0   0
   202   1   1   -0.16126     51.48000000     29.93200000     10.79600000   0   0   0
   203   1   1   -0.19264     43.02700000     19.52000000     13.85600000   0   0   0
   204   1   1   -0.19264     41.81300000     15.13100000     22.91800000   0   0   0
   205   1   1   -0.19264     23.66700000     36.57500000     16.77900000   0   0   0
   206   1   1   -0.19264     26.77500000     29.14100000     25.18500000   0   0   0
   207   1   1   -0.16126     49.22500000     30.37100000     10.83800000   0   0   0
   208   1   1   -0.19264     41.82300000     20.08600000     11.93400000   0   0   0
   209   1   1   -0.19264     31.26500000     19.41500000     16.36500000   0   0   0
   210   1   1   -0.19264     40.46900000     15.83000000     21.21700000   0   0   0
   211   1   1   -0.19264     38.13300000     27.89700000     19.73400000   0   0   0
   212   1   1   -0.19264     22.45700000     35.46100000     15.32300000   0   0   0
   213   1   1   -0.19264     13.76000000     30.90800000     18.11500000   0   0   0
   214   1   1   -0.19264     26.55500000     26.97000000     25.07400000   0   0   0
   215   1   1   -0.16126     50.17800000     28.65600000     12.02500000   0   0   0
   216   1   1   -0.19264     33.41700000     18.77200000     16.37900000   0   0   0
   217   1   1   -0.19264     39.14100000     29.81200000     20.22500000   0   0   0
   218   1   1   -0.19264     12.62300000     30.81300000     19.97600000   0   0   0
   219   1   1   -0.16734     52.24300000     32.56200000     11.04300000   0   0   0
   220   1   1   -0.16734     46.80700000     20.01700000     11.30600000   0   0   0
   221   1   1   -0.16734     44.28800000     13.46000000     21.74500000   0   0   0
   222   1   1   -0.16734     32.29300000     23.15500000     14.03100000   0   0   0
   223   1   1   -0.16734     37.66400000     30.11800000     15.27700000   0   0   0
   224   1   1   -0.16734     20.57200000     36.41600000     19.86400000   0   0   0
   225   1   1   -0.16734     10.92500000     27.29300000     17.29100000   0   0   0
   226   1   1   -0.16734     30.07500000     29.90400000     24.33200000   0   0   0
   227   1   1   -0.16734     52.48800000     33.21800000     13.09600000   0   0   0
   228   1   1   -0.16734     46.60600000     17.92900000     10.84600000   0   0   0
   229   1   1   -0.16734     32.89700000     24.14600000     15.88300000   0   0   0
   230   1   1   -0.16734     44.97700000     14.14700000     19.68100000   0   0   0
   231   1   1   -0.16734     12.65700000     26.04000000     18.28000000   0   0   0
   232   1   1   -0.16734     35.83400000     29.11600000     16.10600000   0   0   0
   233   1   1   -0.16734     19.14500000     35.65300000     18.43500000   0   0   0
   234   1   1   -0.16734     30.88500000     28.09600000     23.26700000   0   0   0
   235   1   1   -0.19218     50.16200000     34.41500000     10.75300000   0   0   0
   236   1   1   -0.19218     47.79700000     19.26600000     14.05300000   0   0   0
   237   1   1   -0.19218     30.24300000     24.32400000     16.59800000   0   0   0
   238   1   1   -0.19218     42.44000000     11.78600000     20.73500000   0   0   0
   239   1   1   -0.19218     12.36000000     27.58500000     15.00100000   0   0   0
   240   1   1   -0.19218     38.71700000     27.62400000     14.48600000   0   0   0
   241   1   1   -0.19218     20.63800000     38.96800000     18.53200000   0   0   0
   242   1   1   -0.19218     30.26800000     28.45500000     26.84500000   0   0   0
   243   1   1   -0.16112     52.80400000     34.96200000     10.00000000   0   0   0
   244   1   1   -0.16112     49.44400000     20.18600000     12.02100000   0   0   0
   245   1   1   -0.16112     29.24500000     22.10600000     15.62700000   0   0   0
   246   1   1   -0.16112     45.25100000     10.83600000     20.92300000   0   0   0
   247   1   1   -0.16112     36.79400000     28.87200000     12.73100000   0   0   0
   248   1   1   -0.16112     18.95000000     38.53900000     20.67200000   0   0   0
   249   1   1   -0.16112     32.38500000     30.22100000     26.00000000   0   0   0
   250   1   1   -0.16112     11.81500000     24.07000000     15.91200000   0   0   0
   251   1   1   -0.16112     53.37600000     35.44400000     12.06600000   0   0   0
   252   1   1   -0.16112     49.39500000     18.39800000     10.93800000   0   0   0
   253   1   1   -0.16112     29.69600000     22.84000000     13.49800000   0   0   0
   254   1   1   -0.16112     45.44800000     11.49200000     18.85800000   0   0   0
   255   1   1   -0.16112     35.07000000     27.69200000     13.53400000   0   0   0
   256   1   1   -0.16112     17.41700000     37.74200000     19.34900000   0   0   0
   257   1   1   -0.16112     11.84700000     24.88200000     14.03500000   0   0   0
   258   1   1   -0.16112     33.22100000     28.35900000     24.79600000   0   0   0
   259   1   1   -0.16112     51.76500000     36.72500000     10.88400000   0   0   0
   260   1   1   -0.16112     50.14600000     18.33200000     13.05400000   0   0   0
   261   1   1   -0.16112     28.17300000     23.81200000     14.68500000   0   0   0
   262   1   1   -0.16112     43.84600000     10.00000000     19.41100000   0   0   0
   263   1   1   -0.16112     10.20600000     25.57700000     15.40700000   0   0   0
   264   1   1   -0.16112     36.71600000     26.74500000     12.56600000   0   0   0
   265   1   1   -0.16112     18.12900000     39.79200000     18.92100000   0   0   0
   266   1   1   -0.16112     33.03600000     28.33300000     26.94000000   0   0   0
   267   1   1   -0.16583     48.31500000     35.12800000     12.51900000   0   0   0
   268   1   1   -0.16583     48.34700000     16.57100000     15.17100000   0   0   0
   269   1   1   -0.16583     40.98900000     11.35400000     18.50300000   0   0   0
   270   1   1   -0.16583     29.57100000     26.94000000     15.88300000   0   0   0
   271   1   1   -0.16583     30.75800000     26.13900000     27.85000000   0   0   0
   272   1   1   -0.16583     38.16900000     24.88200000     14.36400000   0   0   0
   273   1   1   -0.16583     19.88100000     39.77700000     15.85300000   0   0   0
   274   1   1   -0.16583     14.52600000     26.44500000     13.48700000   0   0   0
   275   1   1   -0.16583     49.38000000     34.51000000     14.41700000   0   0   0
   276   1   1   -0.16583     46.29000000     16.88800000     14.46600000   0   0   0
   277   1   1   -0.16583     31.69700000     26.87100000     15.92000000   0   0   0
   278   1   1   -0.16583     40.86500000     13.56500000     19.02600000   0   0   0
   279   1   1   -0.16583     29.23000000     25.79600000     26.32700000   0   0   0
   280   1   1   -0.16583     39.09800000     25.45200000     16.34600000   0   0   0
   281   1   1   -0.16583     20.65300000     37.75800000     15.42300000   0   0   0
   282   1   1   -0.16583     14.96200000     27.92500000     15.07600000   0   0   0
   283   1   1   -0.17404     49.95900000     36.93200000     15.20000000   0   0   0
   284   1   1   -0.17404     46.39400000     14.39000000     13.08800000   0   0   0
   285   1   1   -0.17404     31.70700000     27.33600000     12.97600000   0   0   0
   286   1   1   -0.17404     42.03500000     14.11300000     16.43100000   0   0   0
   287   1   1   -0.17404     36.95400000     24.43500000     17.73600000   0   0   0
   288   1   1   -0.17404     18.12700000     36.77000000     14.91700000   0   0   0
   289   1   1   -0.17404     31.34700000     23.92200000     25.01300000   0   0   0
   290   1   1   -0.17404     16.54800000     25.37400000     16.24100000   0   0   0
   291   1   1   -0.17404     49.59200000     37.84800000     13.17300000   0   0   0
   292   1   1   -0.17404     48.63000000     14.34000000     13.78900000   0   0   0
   293   1   1   -0.17404     29.54300000     27.35500000     13.03700000   0   0   0
   294   1   1   -0.17404     41.87400000     11.86800000     16.06000000   0   0   0
   295   1   1   -0.17404     35.82300000     23.99400000     15.92800000   0   0   0
   296   1   1   -0.17404     17.07800000     38.80900000     15.21900000   0   0   0
   297   1   1   -0.17404     16.27800000     24.68600000     14.15700000   0   0   0
   298   1   1   -0.17404     32.54900000     24.32600000     26.82500000   0   0   0
   299   1   2    0.38416     40.35800000     28.29300000     18.71000000   0   0   0
   300   1   2    0.44990     17.78500000     23.06800000     22.91000000   0   0   0
   301   1   2    0.38416     25.18600000     28.24700000     23.74400000   0   0   0
   302   1   2    0.38416     43.73700000     21.41200000     12.75500000   0   0   0
   303   1   2    0.38416     32.42900000     19.47400000     14.32400000   0   0   0
   304   1   2    0.38416     24.39100000     34.45600000     16.17900000   0   0   0
   305   1   2    0.38416     41.50300000     17.40700000     22.66700000   0   0   0
   306   1   2    0.38416     11.45600000     30.69600000     17.91800000   0   0   0
   307   1   2    0.38450     11.30400000     32.31200000     17.69300000   0   0   0
   308   1   2    0.40751     18.64200000     21.91200000     22.23200000   0   0   0
   309   1   2    0.38450     25.40000000     34.13000000     17.35400000   0   0   0
   310   1   2    0.38450     41.05500000     27.34000000     19.70900000   0   0   0
   311   1   2    0.38450     33.58500000     19.69200000     13.34600000   0   0   0
   312   1   2    0.38450     24.81400000     29.49300000     22.76900000   0   0   0
   313   1   2    0.38450     42.82100000     22.45200000     13.45900000   0   0   0
   314   1   2    0.38450     40.30500000     17.60900000     23.69100000   0   0   0
   315   1   2    0.38451     26.54700000     33.05200000     17.07000000   0   0   0
   316   1   2    0.38451     43.36900000     23.92000000     13.55300000   0   0   0
   317   1   2    0.38451     23.25200000     29.73500000     22.50900000   0   0   0
   318   1   2    0.38451     34.87900000     18.80800000     13.52100000   0   0   0
   319   1   2    0.38451     12.01100000     32.95100000     16.46300000   0   0   0
   320   1   2    0.38733     20.18500000     22.22700000     22.19500000   0   0   0
   321   1   2    0.38451     38.75800000     17.45200000     23.43400000   0   0   0
   322   1   2    0.38451     42.40800000     26.63900000     19.35900000   0   0   0
   323   1   2    0.38451     43.01700000     25.67200000     20.46100000   0   0   0
   324   1   2    0.38451     13.08200000     34.03400000     16.75800000   0   0   0
   325   1   2    0.38451     42.62000000     24.98000000     14.45700000   0   0   0
   326   1   2    0.38451     27.56100000     32.90800000     18.28400000   0   0   0
   327   1   2    0.38451     37.78500000     18.08700000     24.52400000   0   0   0
   328   1   2    0.38465     21.17600000     21.09500000     21.60000000   0   0   0
   329   1   2    0.38451     34.79400000     17.23500000     13.37800000   0   0   0
   330   1   2    0.38451     22.39600000     30.63600000     23.43200000   0   0   0
   331   1   2    0.38451     20.84300000     30.43400000     23.36000000   0   0   0
   332   1   2    0.38451     13.95900000     34.84400000     15.73600000   0   0   0
   333   1   2    0.38451     22.77800000     21.26400000     21.61900000   0   0   0
   334   1   2    0.38451     28.95300000     32.21700000     18.05100000   0   0   0
   335   1   2    0.38451     36.25600000     17.60600000     24.36000000   0   0   0
   336   1   2    0.38451     43.09600000     26.49400000     14.44000000   0   0   0
   337   1   2    0.38451     43.80100000     24.41700000     19.86500000   0   0   0
   338   1   2    0.38451     36.17200000     16.55800000     13.54000000   0   0   0
   339   1   2    0.38451     23.46700000     22.44000000     20.80600000   0   0   0
   340   1   2    0.38451     15.12600000     34.10100000     14.88200000   0   0   0
   341   1   2    0.38451     29.91300000     32.23500000     19.38100000   0   0   0
   342   1   2    0.38451     44.52300000     26.85800000     14.99900000   0   0   0
   343   1   2    0.38451     37.31200000     16.67000000     12.38500000   0   0   0