LAMMPS data file using Dreiding for structure

498  atoms
497  bonds
976  angles
1383  dihedrals

5  atom types
5  bond types
3  angle types
15  dihedral types

0.0000000000000000e+00 6.1875999999999998e+01 xlo xhi
0.0000000000000000e+00 5.4475999999999999e+01 ylo yhi
0.0000000000000000e+00 5.4984000000000002e+01 zlo zhi


Masses

  2     12.011000     # C_3
  3     15.999400     # O_3
  4     15.999400     # O_2
  1     18.998400     # F_
  5     32.060000     # S_3

Atoms

     1   1   1   -0.19227     14.72700000     21.25500000     11.14300000   0   0   0
     2   1   1   -0.19227     38.97200000     34.23400000     35.99300000   0   0   0
     3   1   1   -0.16086     19.35000000     37.64100000     14.37100000   0   0   0
     4   1   1   -0.19227     27.68500000     24.92000000     34.05800000   0   0   0
     5   1   1   -0.19227     38.69200000     25.80300000     29.82000000   0   0   0
     6   1   1   -0.19227     21.19000000     29.45800000     21.85100000   0   0   0
     7   1   1   -0.19227     44.39400000     23.23800000     39.03500000   0   0   0
     8   1   1   -0.19227     18.94700000     15.37100000     22.71200000   0   0   0
     9   1   1   -0.19227     37.63500000     35.83900000     36.50900000   0   0   0
    10   1   1   -0.19227     29.25100000     23.50000000     34.61300000   0   0   0
    11   1   1   -0.19227     19.50100000     13.38900000     23.52700000   0   0   0
    12   1   1   -0.19227     22.08600000     27.50300000     21.94500000   0   0   0
    13   1   1   -0.19227     16.49300000     21.65300000     10.00000000   0   0   0
    14   1   1   -0.19227     37.70700000     27.57300000     30.63700000   0   0   0
    15   1   1   -0.19227     42.39600000     22.96000000     38.24300000   0   0   0
    16   1   1   -0.16086     20.29100000     35.99300000     13.24300000   0   0   0
    17   1   1   -0.16086     20.47300000     38.14300000     12.41100000   0   0   0
    18   1   1   -0.19226     21.51300000     15.93900000     22.11500000   0   0   0
    19   1   1   -0.19226     36.10600000     32.69600000     35.93600000   0   0   0
    20   1   1   -0.19226     19.09400000     28.84200000     23.24200000   0   0   0
    21   1   1   -0.18904     22.01700000     38.96700000     14.59000000   0   0   0
    22   1   1   -0.19226     17.65300000     19.50100000     11.71800000   0   0   0
    23   1   1   -0.19226     37.21100000     27.30500000     28.16100000   0   0   0
    24   1   1   -0.19226     29.23900000     26.04800000     31.97100000   0   0   0
    25   1   1   -0.19226     44.82300000     25.28800000     37.07000000   0   0   0
    26   1   1   -0.19226     19.81600000     26.99900000     24.04100000   0   0   0
    27   1   1   -0.19226     30.83800000     24.62500000     32.20700000   0   0   0
    28   1   1   -0.19226     16.31000000     18.93500000     10.15600000   0   0   0
    29   1   1   -0.19226     22.27000000     13.94200000     22.61000000   0   0   0
    30   1   1   -0.19226     42.87700000     24.87500000     36.18700000   0   0   0
    31   1   1   -0.19226     39.36000000     27.09800000     27.55600000   0   0   0
    32   1   1   -0.18904     22.88000000     37.20700000     13.38900000   0   0   0
    33   1   1   -0.19226     35.74200000     34.18200000     37.44100000   0   0   0
    34   1   1   -0.19226     20.51300000     16.34200000     24.59900000   0   0   0
    35   1   1   -0.19226     36.66100000     31.47100000     38.03900000   0   0   0
    36   1   1   -0.19211     21.06900000     37.26300000     16.51600000   0   0   0
    37   1   1   -0.19226     31.32700000     27.18100000     33.15800000   0   0   0
    38   1   1   -0.19226     45.33500000     23.85500000     35.07700000   0   0   0
    39   1   1   -0.19226     17.83500000     27.01000000     21.85500000   0   0   0
    40   1   1   -0.19226     15.14200000     19.61700000     13.40400000   0   0   0
    41   1   1   -0.19226     37.93100000     29.92300000     29.15200000   0   0   0
    42   1   1   -0.19226     29.53400000     27.23400000     34.33400000   0   0   0
    43   1   1   -0.19226     45.70200000     22.61600000     36.66700000   0   0   0
    44   1   1   -0.19226     39.87700000     29.60800000     28.18700000   0   0   0
    45   1   1   -0.19226     38.58600000     31.91600000     37.05400000   0   0   0
    46   1   1   -0.19226     21.10900000     14.32600000     25.35400000   0   0   0
    47   1   1   -0.19226     14.13300000     18.59500000     11.85900000   0   0   0
    48   1   1   -0.19226     19.56400000     27.47400000     20.56400000   0   0   0
    49   1   1   -0.19211     21.78700000     35.52500000     15.28800000   0   0   0
    50   1   1   -0.19226     17.08600000     17.61700000     13.55000000   0   0   0
    51   1   1   -0.19226     36.55000000     29.72200000     26.77900000   0   0   0
    52   1   1   -0.19225     23.67300000     38.26800000     16.85300000   0   0   0
    53   1   1   -0.19226     23.47300000     16.43200000     23.62400000   0   0   0
    54   1   1   -0.19226     42.41600000     22.45400000     35.25500000   0   0   0
    55   1   1   -0.19226     36.96800000     33.51600000     39.80000000   0   0   0
    56   1   1   -0.19226     18.64800000     24.65600000     22.63700000   0   0   0
    57   1   1   -0.19226     31.80100000     24.52500000     34.76800000   0   0   0
    58   1   1   -0.19226     16.42200000     16.70200000     11.68300000   0   0   0
    59   1   1   -0.19226     20.73600000     25.05400000     22.50600000   0   0   0
    60   1   1   -0.19225     24.51600000     36.81100000     15.45500000   0   0   0
    61   1   1   -0.19226     30.30600000     25.34800000     36.11600000   0   0   0
    62   1   1   -0.19226     38.67900000     34.35800000     38.90500000   0   0   0
    63   1   1   -0.19226     43.53600000     21.06200000     36.45400000   0   0   0
    64   1   1   -0.19226     23.68800000     14.60500000     24.82800000   0   0   0
    65   1   1   -0.19226     38.14300000     28.71900000     25.76700000   0   0   0
    66   1   1   -0.19226     20.03700000     23.28400000     20.76000000   0   0   0
    67   1   1   -0.19226     25.03300000     36.20200000     17.97700000   0   0   0
    68   1   1   -0.19226     22.49100000     15.98900000     27.05200000   0   0   0
    69   1   1   -0.19226     37.85800000     31.43800000     24.93700000   0   0   0
    70   1   1   -0.19226     32.68600000     25.83000000     37.10000000   0   0   0
    71   1   1   -0.19226     43.87600000     19.92800000     34.15300000   0   0   0
    72   1   1   -0.19226     39.17600000     33.04400000     41.10000000   0   0   0
    73   1   1   -0.19226     15.63900000     15.27000000     13.72900000   0   0   0
    74   1   1   -0.19226     13.93600000     15.97200000     12.60200000   0   0   0
    75   1   1   -0.19226     31.67600000     27.66900000     36.34300000   0   0   0
    76   1   1   -0.19226     39.66900000     31.18200000     25.90500000   0   0   0
    77   1   1   -0.19226     22.08900000     17.74700000     25.77400000   0   0   0
    78   1   1   -0.19226     45.73600000     20.97000000     34.43100000   0   0   0
    79   1   1   -0.19226     40.20200000     32.16900000     39.59300000   0   0   0
    80   1   1   -0.19226     23.95800000     34.59800000     16.70900000   0   0   0
    81   1   1   -0.19226     20.46600000     25.24900000     19.70100000   0   0   0
    82   1   1   -0.19226     45.11000000     23.02600000     32.66900000   0   0   0
    83   1   1   -0.19226     38.34200000     30.06900000     39.38600000   0   0   0
    84   1   1   -0.19226     38.56700000     33.59400000     26.40100000   0   0   0
    85   1   1   -0.19226     33.50000000     28.25500000     34.63400000   0   0   0
    86   1   1   -0.19226     25.01400000     17.85300000     25.16100000   0   0   0
    87   1   1   -0.19226     13.57200000     15.59100000     15.39700000   0   0   0
    88   1   1   -0.19226     21.56300000     34.94300000     17.98600000   0   0   0
    89   1   1   -0.19226     17.75800000     25.68700000     19.30600000   0   0   0
    90   1   1   -0.19226     43.01900000     22.40300000     32.56100000   0   0   0
    91   1   1   -0.19226     37.15100000     31.00900000     40.95700000   0   0   0
    92   1   1   -0.19226     33.69500000     26.13300000     34.03100000   0   0   0
    93   1   1   -0.19226     39.06300000     32.47700000     28.20400000   0   0   0
    94   1   1   -0.19226     25.25800000     16.06200000     26.50200000   0   0   0
    95   1   1   -0.19226     13.20100000     17.59200000     14.80800000   0   0   0
    96   1   1   -0.19226     17.25400000     24.02900000     20.63800000   0   0   0
    97   1   1   -0.19226     22.28800000     36.87300000     18.86500000   0   0   0
    98   1   1   -0.19226     43.67500000     19.86000000     31.62800000   0   0   0
    99   1   1   -0.19226     39.37400000     30.64300000     42.81100000   0   0   0
   100   1   1   -0.19226     36.15100000     31.68500000     28.10000000   0   0   0
   101   1   1   -0.19226     35.27700000     25.57400000     36.16600000   0   0   0
   102   1   1   -0.19226     24.10300000     17.43100000     28.59400000   0   0   0
   103   1   1   -0.19226     15.53300000     18.46300000     15.95400000   0   0   0
   104   1   1   -0.19226     24.07000000     35.57500000     20.48800000   0   0   0
   105   1   1   -0.19226     16.81900000     23.27000000     18.22700000   0   0   0
   106   1   1   -0.19226     23.84700000     33.59800000     19.62600000   0   0   0
   107   1   1   -0.19226     45.74200000     20.14700000     31.89000000   0   0   0
   108   1   1   -0.19226     16.38300000     16.55700000     15.95400000   0   0   0
   109   1   1   -0.19226     40.62800000     29.98300000     41.23300000   0   0   0
   110   1   1   -0.19226     34.89000000     27.40600000     37.01800000   0   0   0
   111   1   1   -0.19226     23.64700000     19.24100000     27.40100000   0   0   0
   112   1   1   -0.19226     18.34700000     22.13400000     18.91700000   0   0   0
   113   1   1   -0.19226     35.86800000     33.30800000     26.51800000   0   0   0
   114   1   1   -0.19226     13.27100000     17.27200000     17.61000000   0   0   0
   115   1   1   -0.19226     36.95100000     33.56800000     29.93100000   0   0   0
   116   1   1   -0.19226     20.88800000     35.22000000     20.67500000   0   0   0
   117   1   1   -0.19226     20.39200000     23.43700000     17.39300000   0   0   0
   118   1   1   -0.19226     36.31600000     26.89800000     33.90200000   0   0   0
   119   1   1   -0.19226     43.98800000     22.48900000     30.02500000   0   0   0
   120   1   1   -0.19226     37.49500000     28.40300000     41.93500000   0   0   0
   121   1   1   -0.19226     26.88600000     17.58700000     27.54800000   0   0   0
   122   1   1   -0.19226     21.48400000     33.17800000     20.69500000   0   0   0
   123   1   1   -0.19226     18.64800000     22.82300000     16.40500000   0   0   0
   124   1   1   -0.19226     14.48400000     15.61500000     17.93600000   0   0   0
   125   1   1   -0.19226     37.42900000     34.96900000     28.39400000   0   0   0
   126   1   1   -0.19226     39.15800000     27.75300000     40.78200000   0   0   0
   127   1   1   -0.19226     46.04200000     21.90800000     29.99500000   0   0   0
   128   1   1   -0.19226     26.29100000     19.48000000     26.76500000   0   0   0
   129   1   1   -0.19226     36.25200000     28.75600000     35.15700000   0   0   0
   130   1   1   -0.19226     21.13800000     34.33400000     23.14600000   0   0   0
   131   1   1   -0.19226     19.77400000     25.20100000     15.42500000   0   0   0
   132   1   1   -0.19226     14.82600000     17.28000000     19.94100000   0   0   0
   133   1   1   -0.19226     38.90900000     26.56700000     43.16800000   0   0   0
   134   1   1   -0.19226     27.67100000     19.71000000     28.94900000   0   0   0
   135   1   1   -0.19226     34.38700000     33.74000000     29.72400000   0   0   0
   136   1   1   -0.19226     44.50500000     21.23400000     27.81300000   0   0   0
   137   1   1   -0.19226     38.05000000     25.67700000     35.36300000   0   0   0
   138   1   1   -0.19226     15.08200000     18.96500000     18.61800000   0   0   0
   139   1   1   -0.19226     22.50300000     35.95600000     22.71000000   0   0   0
   140   1   1   -0.19226     19.38400000     26.15000000     17.20700000   0   0   0
   141   1   1   -0.19226     26.35600000     18.21600000     30.03400000   0   0   0
   142   1   1   -0.19226     43.27400000     19.97000000     29.03300000   0   0   0
   143   1   1   -0.19226     34.31800000     35.00100000     28.02500000   0   0   0
   144   1   1   -0.19226     39.10900000     28.37700000     44.27700000   0   0   0
   145   1   1   -0.19226     37.62400000     26.69800000     37.11100000   0   0   0
   146   1   1   -0.19226     17.29400000     18.37400000     19.84500000   0   0   0
   147   1   1   -0.19226     23.71200000     34.40900000     24.36700000   0   0   0
   148   1   1   -0.19226     17.68900000     26.90800000     15.22600000   0   0   0
   149   1   1   -0.19226     24.29600000     19.92500000     30.01900000   0   0   0
   150   1   1   -0.19226     41.50500000     26.96400000     44.28600000   0   0   0
   151   1   1   -0.19226     45.14000000     18.59800000     27.58700000   0   0   0
   152   1   1   -0.19226     33.88200000     36.50300000     30.25800000   0   0   0
   153   1   1   -0.19226     40.18600000     27.50500000     36.08700000   0   0   0
   154   1   1   -0.19226     24.58400000     33.77800000     22.53100000   0   0   0
   155   1   1   -0.19226     16.74000000     25.96500000     16.89700000   0   0   0
   156   1   1   -0.19226     17.56000000     17.83400000     17.81000000   0   0   0
   157   1   1   -0.19226     25.12000000     21.15800000     28.39400000   0   0   0
   158   1   1   -0.19226     41.79000000     28.79500000     43.44800000   0   0   0
   159   1   1   -0.19226     35.82300000     36.99300000     29.29800000   0   0   0
   160   1   1   -0.19226     45.42800000     18.10000000     29.56900000   0   0   0
   161   1   1   -0.19226     38.68200000     29.03900000     36.09400000   0   0   0
   162   1   1   -0.19227     27.13000000     22.27300000     29.70600000   0   0   0
   163   1   1   -0.19227     16.86600000     15.73100000     20.61700000   0   0   0
   164   1   1   -0.19227     16.38500000     23.68200000     15.48200000   0   0   0
   165   1   1   -0.19227     38.56700000     28.84600000     33.27100000   0   0   0
   166   1   1   -0.19227     47.55000000     19.86700000     29.69600000   0   0   0
   167   1   1   -0.19227     41.73600000     27.64100000     40.80800000   0   0   0
   168   1   1   -0.19227     37.24700000     35.82700000     31.33200000   0   0   0
   169   1   1   -0.19227     23.39600000     31.45500000     22.18600000   0   0   0
   170   1   1   -0.19227     47.70900000     18.19300000     28.38600000   0   0   0
   171   1   1   -0.19227     43.17600000     27.03000000     42.41600000   0   0   0
   172   1   1   -0.19227     35.93600000     37.45000000     31.90200000   0   0   0
   173   1   1   -0.19227     40.64300000     28.73700000     33.92400000   0   0   0
   174   1   1   -0.19227     25.22600000     22.46500000     30.75300000   0   0   0
   175   1   1   -0.19227     17.08700000     15.05200000     18.55700000   0   0   0
   176   1   1   -0.19227     24.35200000     31.69100000     24.18900000   0   0   0
   177   1   1   -0.19227     15.46000000     25.46900000     14.68600000   0   0   0
   178   1   1   -0.19250     46.73000000     20.22200000     26.15800000   0   0   0
   179   1   1   -0.19264     41.40100000     24.80900000     42.93700000   0   0   0
   180   1   1   -0.19264     33.94600000     35.45400000     32.57700000   0   0   0
   181   1   1   -0.19264     40.25600000     25.84400000     34.06700000   0   0   0
   182   1   1   -0.19264     25.82200000     20.11900000     32.32300000   0   0   0
   183   1   1   -0.19264     19.63900000     16.49500000     18.41500000   0   0   0
   184   1   1   -0.19264     21.57400000     32.44800000     24.87200000   0   0   0
   185   1   1   -0.19264     17.24900000     25.78300000     12.76500000   0   0   0
   186   1   1   -0.19250     47.21000000     21.69900000     27.65600000   0   0   0
   187   1   1   -0.19264     40.24500000     25.22000000     41.23400000   0   0   0
   188   1   1   -0.19264     38.54800000     26.24000000     32.76500000   0   0   0
   189   1   1   -0.19264     35.31900000     33.91500000     32.29600000   0   0   0
   190   1   1   -0.19264     27.88400000     20.34300000     31.78800000   0   0   0
   191   1   1   -0.19264     19.53800000     16.88100000     20.52500000   0   0   0
   192   1   1   -0.19264     18.54200000     24.25200000     13.26000000   0   0   0
   193   1   1   -0.19264     20.93200000     31.68300000     22.98800000   0   0   0
   194   1   1   -0.19498     49.11700000     21.22200000     25.73600000   0   0   0
   195   1   1   -0.19816     42.05800000     23.28300000     40.81500000   0   0   0
   196   1   1   -0.19816     34.86600000     34.84400000     34.93400000   0   0   0
   197   1   1   -0.19816     40.71500000     25.20100000     31.59700000   0   0   0
   198   1   1   -0.19816     27.65400000     21.48200000     34.02500000   0   0   0
   199   1   1   -0.19816     21.10800000     14.77800000     19.70300000   0   0   0
   200   1   1   -0.19816     20.42200000     30.15700000     24.95800000   0   0   0
   201   1   1   -0.19816     16.66300000     24.07100000     10.99300000   0   0   0
   202   1   1   -0.16126     51.25100000     21.04200000     27.49800000   0   0   0
   203   1   1   -0.19264     43.54800000     26.14500000     39.34500000   0   0   0
   204   1   1   -0.19264     41.10100000     27.65900000     29.68600000   0   0   0
   205   1   1   -0.19264     20.23200000     12.58200000     21.18100000   0   0   0
   206   1   1   -0.19264     22.25900000     27.82000000     24.88400000   0   0   0
   207   1   1   -0.16126     50.25700000     19.65500000     28.74900000   0   0   0
   208   1   1   -0.19264     41.56400000     25.36600000     38.81100000   0   0   0
   209   1   1   -0.19264     38.18100000     35.75600000     33.96000000   0   0   0
   210   1   1   -0.19264     40.14900000     28.82700000     31.06200000   0   0   0
   211   1   1   -0.19264     27.34200000     24.14200000     31.66600000   0   0   0
   212   1   1   -0.19264     18.18800000     13.36600000     21.17300000   0   0   0
   213   1   1   -0.19264     16.84400000     21.63500000     13.60500000   0   0   0
   214   1   1   -0.19264     23.49400000     29.12300000     23.64400000   0   0   0
   215   1   1   -0.16126     49.55000000     21.74100000     28.68700000   0   0   0
   216   1   1   -0.19264     37.51200000     33.65400000     33.69900000   0   0   0
   217   1   1   -0.19264     29.06300000     22.74800000     31.54200000   0   0   0
   218   1   1   -0.19264     18.18700000     22.07700000     12.01900000   0   0   0
   219   1   1   -0.16734     51.26500000     18.27000000     26.53400000   0   0   0
   220   1   1   -0.16734     43.92800000     22.50700000     42.53900000   0   0   0
   221   1   1   -0.16734     43.18200000     25.79000000     30.75500000   0   0   0
   222   1   1   -0.16734     34.76500000     37.22200000     36.38700000   0   0   0
   223   1   1   -0.16734     25.92700000     23.26100000     35.57900000   0   0   0
   224   1   1   -0.16734     21.20900000     12.43700000     18.38800000   0   0   0
   225   1   1   -0.16734     13.95400000     24.11200000     10.63000000   0   0   0
   226   1   1   -0.16734     21.05300000     29.44700000     27.46800000   0   0   0
   227   1   1   -0.16734     50.66500000     19.10400000     24.61200000   0   0   0
   228   1   1   -0.16734     43.94700000     24.18900000     43.91700000   0   0   0
   229   1   1   -0.16734     33.45700000     37.39100000     34.66900000   0   0   0
   230   1   1   -0.16734     43.67600000     25.71700000     32.76600000   0   0   0
   231   1   1   -0.16734     14.17400000     25.68500000     12.10700000   0   0   0
   232   1   1   -0.16734     25.08300000     21.33800000     34.81600000   0   0   0
   233   1   1   -0.16734     20.70500000     13.95300000     16.83600000   0   0   0
   234   1   1   -0.16734     21.76100000     31.61900000     27.37500000   0   0   0
   235   1   1   -0.19218     49.23100000     16.10200000     26.08800000   0   0   0
   236   1   1   -0.19218     46.44400000     22.93900000     41.57400000   0   0   0
   237   1   1   -0.19218     35.41500000     39.48800000     33.70500000   0   0   0
   238   1   1   -0.19218     43.65800000     28.75000000     30.80200000   0   0   0
   239   1   1   -0.19218     12.18900000     22.66500000     12.01300000   0   0   0
   240   1   1   -0.19218     23.84600000     24.68600000     34.42500000   0   0   0
   241   1   1   -0.19218     19.10300000     10.94600000     18.04400000   0   0   0
   242   1   1   -0.19218     23.70100000     28.69300000     28.13400000   0   0   0
   243   1   1   -0.16112     51.87600000     15.88000000     25.53100000   0   0   0
   244   1   1   -0.16112     46.21600000     21.83200000     44.24200000   0   0   0
   245   1   1   -0.16112     37.60400000     38.76500000     35.14600000   0   0   0
   246   1   1   -0.16112     45.57200000     26.67300000     29.77700000   0   0   0
   247   1   1   -0.16112     23.71000000     23.08300000     37.04300000   0   0   0
   248   1   1   -0.16112     21.24700000     10.25800000     16.46100000   0   0   0
   249   1   1   -0.16112     21.92300000     29.30700000     30.22100000   0   0   0
   250   1   1   -0.16112     11.37700000     25.26500000     10.83900000   0   0   0
   251   1   1   -0.16112     51.72900000     17.01400000     23.66400000   0   0   0
   252   1   1   -0.16112     46.34600000     23.93200000     44.98400000   0   0   0
   253   1   1   -0.16112     36.71000000     39.04900000     37.02400000   0   0   0
   254   1   1   -0.16112     46.38100000     26.49100000     31.81700000   0   0   0
   255   1   1   -0.16112     22.39000000     21.73200000     35.91200000   0   0   0
   256   1   1   -0.16112     20.61700000     11.82100000     14.91100000   0   0   0
   257   1   1   -0.16112     11.50800000     26.01900000     12.96200000   0   0   0
   258   1   1   -0.16112     22.13800000     31.48200000     30.03100000   0   0   0
   259   1   1   -0.16112     50.71000000     15.01800000     23.74200000   0   0   0
   260   1   1   -0.16112     48.00200000     22.89100000     43.75600000   0   0   0
   261   1   1   -0.16112     36.82800000     40.77800000     35.81100000   0   0   0
   262   1   1   -0.16112     46.44600000     28.42700000     30.77900000   0   0   0
   263   1   1   -0.16112     10.00000000     24.53900000     12.19300000   0   0   0
   264   1   1   -0.16112     21.95000000     23.87000000     36.02200000   0   0   0
   265   1   1   -0.16112     19.31700000     10.00000000     15.39400000   0   0   0
   266   1   1   -0.16112     23.85400000     30.11400000     30.58800000   0   0   0
   267   1   1   -0.16583     47.29300000     15.39600000     24.30800000   0   0   0
   268   1   1   -0.16583     48.30200000     25.31600000     41.18200000   0   0   0
   269   1   1   -0.16583     45.27600000     30.63100000     32.51100000   0   0   0
   270   1   1   -0.16583     34.39600000     41.85300000     34.65500000   0   0   0
   271   1   1   -0.16583     26.22300000     29.83900000     28.34000000   0   0   0
   272   1   1   -0.16583     21.11200000     24.06600000     33.47100000   0   0   0
   273   1   1   -0.16583     16.68500000     10.44600000     16.53900000   0   0   0
   274   1   1   -0.16583     10.75700000     22.61700000     14.53100000   0   0   0
   275   1   1   -0.16583     46.67200000     17.38400000     25.10300000   0   0   0
   276   1   1   -0.16583     46.26400000     25.12800000     40.16400000   0   0   0
   277   1   1   -0.16583     32.42300000     40.90300000     34.85100000   0   0   0
   278   1   1   -0.16583     43.23600000     30.23400000     32.96700000   0   0   0
   279   1   1   -0.16583     25.41000000     29.93200000     26.24600000   0   0   0
   280   1   1   -0.16583     22.62600000     24.47200000     31.87800000   0   0   0
   281   1   1   -0.16583     16.70300000     11.95200000     18.23700000   0   0   0
   282   1   1   -0.16583     12.63100000     21.61800000     14.55100000   0   0   0
   283   1   1   -0.17404     47.00900000     18.47500000     22.41200000   0   0   0
   284   1   1   -0.17404     45.46300000     27.52100000     41.04800000   0   0   0
   285   1   1   -0.17404     32.60100000     41.44500000     37.70700000   0   0   0
   286   1   1   -0.17404     43.73000000     29.05600000     35.52400000   0   0   0
   287   1   1   -0.17404     22.00100000     21.98200000     30.74500000   0   0   0
   288   1   1   -0.17404     15.63300000     13.82100000     16.24400000   0   0   0
   289   1   1   -0.17404     25.58300000     32.91200000     26.38000000   0   0   0
   290   1   1   -0.17404     13.50300000     23.54400000     16.60500000   0   0   0
   291   1   1   -0.17404     47.58800000     16.42600000     21.76000000   0   0   0
   292   1   1   -0.17404     47.24300000     27.98500000     42.25900000   0   0   0
   293   1   1   -0.17404     34.45800000     42.52800000     37.39000000   0   0   0
   294   1   1   -0.17404     45.87700000     29.69000000     35.00300000   0   0   0
   295   1   1   -0.17404     20.46500000     21.56600000     32.20900000   0   0   0
   296   1   1   -0.17404     15.74800000     12.22200000     14.71000000   0   0   0
   297   1   1   -0.17404     11.53700000     24.44900000     16.50900000   0   0   0
   298   1   1   -0.17404     26.64300000     32.53100000     28.28500000   0   0   0
   299   1   2    0.38416     28.77800000     24.28800000     33.52700000   0   0   0
   300   1   2    0.44990     20.49700000     37.40300000     13.60500000   0   0   0
   301   1   2    0.38416     21.32200000     28.36700000     22.67400000   0   0   0
   302   1   2    0.38416     43.35000000     23.94200000     38.41500000   0   0   0
   303   1   2    0.38416     37.64700000     34.60600000     35.90900000   0   0   0
   304   1   2    0.38416     19.81100000     14.32400000     22.58300000   0   0   0
   305   1   2    0.38416     38.82700000     27.18900000     29.90800000   0   0   0
   306   1   2    0.38416     16.08200000     21.15700000     11.24100000   0   0   0
   307   1   2    0.38450     16.32800000     19.62600000     11.37400000   0   0   0
   308   1   2    0.40751     21.86600000     37.63000000     14.27700000   0   0   0
   309   1   2    0.38450     21.26600000     14.85300000     22.94900000   0   0   0
   310   1   2    0.38450     29.86900000     25.29400000     32.92100000   0   0   0
   311   1   2    0.38450     36.80700000     33.56400000     36.79500000   0   0   0
   312   1   2    0.38450     19.91100000     27.77100000     22.95400000   0   0   0
   313   1   2    0.38450     43.92900000     24.32300000     36.95500000   0   0   0
   314   1   2    0.38450     38.52400000     27.72900000     28.45900000   0   0   0
   315   1   2    0.38451     21.38400000     15.32600000     24.42000000   0   0   0
   316   1   2    0.38451     44.61000000     23.18700000     36.04400000   0   0   0
   317   1   2    0.38451     19.24000000     26.91300000     21.80400000   0   0   0
   318   1   2    0.38451     37.51100000     32.50200000     37.73300000   0   0   0
   319   1   2    0.38451     15.43500000     18.79100000     12.33200000   0   0   0
   320   1   2    0.38733     22.04500000     36.80500000     15.62400000   0   0   0
   321   1   2    0.38451     38.54900000     29.28900000     28.08000000   0   0   0
   322   1   2    0.38451     30.51700000     26.31200000     33.90500000   0   0   0
   323   1   2    0.38451     31.23900000     25.71400000     35.14500000   0   0   0
   324   1   2    0.38451     15.92300000     17.40900000     12.84300000   0   0   0
   325   1   2    0.38451     43.75100000     21.98700000     35.41700000   0   0   0
   326   1   2    0.38451     22.88600000     15.74200000     24.68700000   0   0   0
   327   1   2    0.38451     37.91700000     29.73900000     26.72500000   0   0   0
   328   1   2    0.38465     23.46300000     36.96600000     16.31800000   0   0   0
   329   1   2    0.38451     38.04300000     33.07900000     39.08000000   0   0   0
   330   1   2    0.38451     19.54900000     25.34100000     21.84000000   0   0   0
   331   1   2    0.38451     19.57200000     24.59400000     20.47900000   0   0   0
   332   1   2    0.38451     14.89300000     16.39600000     13.52600000   0   0   0
   333   1   2    0.38451     23.79500000     35.84200000     17.37100000   0   0   0
   334   1   2    0.38451     22.99700000     16.72900000     25.93500000   0   0   0
   335   1   2    0.38451     38.37000000     31.22400000     26.23600000   0   0   0
   336   1   2    0.38451     44.43500000     21.18900000     34.20000000   0   0   0
   337   1   2    0.38451     32.33700000     26.52800000     35.91800000   0   0   0
   338   1   2    0.38451     38.92200000     32.19700000     40.07200000   0   0   0
   339   1   2    0.38451     22.65800000     35.59400000     18.50300000   0   0   0
   340   1   2    0.38451     14.20700000     16.75000000     14.96400000   0   0   0
   341   1   2    0.38451     24.44400000     17.17300000     26.23700000   0   0   0
   342   1   2    0.38451     44.27900000     21.92500000     32.78700000   0   0   0
   343   1   2    0.38451     38.40500000     30.81100000     40.56500000   0   0   0