ITEM: TIMESTEP
5000
ITEM: NUMBER OF ATOMS
498
ITEM: BOX BOUNDS pp pp pp
0.0000000000000000e+00 1.0000000000000000e+02
0.0000000000000000e+00 1.0000000000000000e+02
0.0000000000000000e+00 1.0000000000000000e+02
ITEM: ATOMS id element xs ys zs
296 F 0.391904 0.282988 0.184069
488 O 0.384734 0.313927 0.184181
265 F 0.382336 0.245597 0.197601
224 F 0.408259 0.243423 0.230405
248 F 0.389884 0.232691 0.213513
256 F 0.403516 0.241397 0.198609
432 C 0.392542 0.244196 0.206517
273 F 0.373246 0.273855 0.203148
480 O 0.364488 0.299606 0.189279
496 S 0.379007 0.303355 0.19456
146 F 0.405006 0.308796 0.233125
175 F 0.393462 0.287025 0.245804
183 F 0.420058 0.286818 0.23315
199 F 0.427186 0.262567 0.242281
233 F 0.417841 0.25896 0.217781
241 F 0.382867 0.25725 0.22349
281 F 0.38457 0.284458 0.219579
288 F 0.402628 0.294465 0.200057
392 C 0.417042 0.283721 0.246199
401 C 0.415158 0.268032 0.246233
417 C 0.406402 0.256035 0.224922
424 C 0.394022 0.256866 0.215466
440 C 0.385445 0.279196 0.206798
449 C 0.390386 0.289312 0.196251
456 O 0.404835 0.265237 0.23616
465 O 0.395271 0.26863 0.207008
373 C 0.405022 0.307962 0.246901
473 O 0.378035 0.311054 0.208432
132 F 0.427716 0.314449 0.246047
138 F 0.413019 0.330708 0.247649
36 F 0.428713 0.561622 0.245252
32 F 0.430117 0.586753 0.235144
17 F 0.454157 0.602562 0.24082
21 F 0.449145 0.576918 0.234737
308 C 0.44022 0.582561 0.243376
300 C 0.447391 0.59489 0.250094
479 O 0.473099 0.115061 0.312156
487 O 0.494056 0.118624 0.29667
495 S 0.485039 0.124905 0.308034
472 O 0.478833 0.138374 0.302442
149 F 0.478158 0.17035 0.306987
205 F 0.409495 0.247879 0.257982
64 F 0.430613 0.236166 0.292938
29 F 0.436513 0.245314 0.263144
53 F 0.447959 0.230354 0.281773
77 F 0.452449 0.249513 0.312012
94 F 0.472013 0.235609 0.292883
102 F 0.458525 0.210176 0.294917
121 F 0.487299 0.214813 0.292691
134 F 0.495199 0.190094 0.299402
141 F 0.476131 0.19048 0.289315
326 C 0.443844 0.239612 0.291248
334 C 0.451509 0.237538 0.304971
341 C 0.465736 0.230826 0.30442
352 C 0.466352 0.215208 0.304759
360 C 0.480745 0.208943 0.303587
363 C 0.481893 0.193283 0.301402
191 F 0.428483 0.287408 0.253025
409 C 0.41195 0.261062 0.26005
309 C 0.43674 0.256259 0.271084
8 F 0.422527 0.274875 0.276859
11 F 0.416073 0.255475 0.283165
124 F 0.422433 0.307035 0.272736
163 F 0.402754 0.291611 0.264331
212 F 0.399682 0.26505 0.264483
304 C 0.422023 0.261885 0.272368
379 C 0.404946 0.292806 0.250895
315 C 0.444524 0.253527 0.284469
18 F 0.443631 0.265251 0.263213
34 F 0.457848 0.256914 0.28275
46 F 0.440743 0.2634 0.293375
108 F 0.396576 0.317856 0.27641
156 F 0.392434 0.313157 0.249447
28 F 0.382295 0.375446 0.296689
40 F 0.408475 0.361577 0.287191
50 F 0.384598 0.347643 0.288875
58 F 0.384112 0.349147 0.309915
73 F 0.390474 0.323591 0.301781
87 F 0.417703 0.317404 0.297213
95 F 0.421673 0.338318 0.292194
103 F 0.403537 0.337704 0.271511
114 F 0.430122 0.326585 0.269609
307 C 0.39488 0.375139 0.301761
319 C 0.401888 0.361002 0.299256
324 C 0.393136 0.347704 0.299736
332 C 0.400191 0.333569 0.301491
340 C 0.411681 0.328685 0.292041
353 C 0.40782 0.325905 0.276997
359 C 0.418867 0.319169 0.267863
366 C 0.415838 0.317924 0.25244
47 F 0.412315 0.35925 0.30798
123 F 0.362185 0.432405 0.301575
131 F 0.33917 0.419533 0.30998
192 F 0.359897 0.402672 0.308973
22 F 0.400985 0.384947 0.294394
218 F 0.386478 0.40145 0.310881
39 F 0.355424 0.493178 0.288571
89 F 0.372517 0.457384 0.295628
96 F 0.353719 0.467271 0.294792
117 F 0.3437 0.442912 0.297179
331 C 0.36988 0.476811 0.309842
346 C 0.363464 0.463744 0.303646
356 C 0.352004 0.439613 0.307777
330 C 0.360991 0.489781 0.311673
81 F 0.381549 0.480666 0.303031
234 F 0.310135 0.553349 0.308185
6 F 0.366354 0.531367 0.29812
20 F 0.344987 0.516688 0.290307
48 F 0.37241 0.504052 0.29571
169 F 0.36739 0.558861 0.29774
193 F 0.348619 0.544698 0.282884
200 F 0.329427 0.536783 0.300509
301 C 0.358157 0.526254 0.307724
312 C 0.35124 0.513134 0.302132
317 C 0.36003 0.499979 0.299676
394 C 0.34423 0.553587 0.292228
402 C 0.338645 0.546087 0.304889
122 F 0.373692 0.549752 0.273034
184 F 0.33365 0.559571 0.285682
26 F 0.340601 0.509791 0.310203
80 F 0.425035 0.553837 0.273386
88 F 0.400799 0.546599 0.269462
116 F 0.376397 0.558557 0.253427
339 C 0.402693 0.55998 0.266504
362 C 0.375896 0.561982 0.266966
97 F 0.403454 0.560059 0.252737
298 F 0.299506 0.599807 0.299753
447 C 0.313171 0.598307 0.29858
490 O 0.313605 0.62161 0.284427
289 F 0.314953 0.590563 0.287331
380 C 0.355484 0.564597 0.294687
130 F 0.352268 0.564647 0.262748
139 F 0.364695 0.582511 0.261244
147 F 0.347521 0.583386 0.282088
154 F 0.367517 0.584322 0.287871
176 F 0.352552 0.571865 0.305875
279 F 0.332592 0.590031 0.310042
364 C 0.363083 0.570918 0.268652
371 C 0.358423 0.575155 0.283082
441 C 0.318956 0.591627 0.311349
474 O 0.336536 0.614383 0.292955
497 S 0.321036 0.614487 0.296582
463 O 0.313205 0.57876 0.312918
52 F 0.415935 0.584966 0.259334
60 F 0.432051 0.583255 0.273059
67 F 0.415493 0.568056 0.28513
104 F 0.390927 0.580717 0.267607
106 F 0.389965 0.567937 0.285308
320 C 0.43479 0.571199 0.252937
328 C 0.424787 0.575801 0.264343
333 C 0.41672 0.564572 0.27197
351 C 0.389946 0.56772 0.27146
3 F 0.456936 0.590771 0.259223
16 F 0.438778 0.60366 0.256312
49 F 0.44571 0.564737 0.258727
482 O 0.318333 0.624572 0.308575
264 F 0.486456 0.121865 0.366007
295 F 0.502613 0.117675 0.326797
448 C 0.496103 0.128939 0.321913
272 F 0.478336 0.126028 0.338182
174 F 0.47404 0.174389 0.333953
223 F 0.492916 0.163461 0.370951
240 F 0.476707 0.146357 0.356382
280 F 0.480499 0.146086 0.329275
375 C 0.47615 0.183128 0.312028
382 C 0.481288 0.183635 0.327044
391 C 0.496602 0.181638 0.330058
416 C 0.497475 0.157646 0.359415
423 C 0.490373 0.144034 0.356951
431 C 0.493384 0.133538 0.368181
439 C 0.487491 0.135024 0.333438
455 O 0.494713 0.166444 0.348557
464 O 0.495825 0.139003 0.34445
157 F 0.462197 0.183971 0.312091
255 F 0.506635 0.129947 0.368741
182 F 0.500505 0.170814 0.32231
198 F 0.51469 0.176055 0.343953
232 F 0.511096 0.155921 0.36056
287 F 0.505882 0.137702 0.317399
400 C 0.501352 0.178717 0.344952
4 F 0.515506 0.181495 0.371948
68 F 0.443705 0.230942 0.314127
211 F 0.486944 0.188565 0.361526
408 C 0.499281 0.190446 0.355524
86 F 0.474002 0.23583 0.314545
111 F 0.46073 0.21051 0.316373
128 F 0.488627 0.212846 0.314243
162 F 0.477355 0.195356 0.332658
217 F 0.497322 0.202548 0.348836
27 F 0.497146 0.212648 0.37343
10 F 0.521685 0.19849 0.360325
61 F 0.525871 0.222066 0.371352
190 F 0.5039 0.192172 0.324959
299 C 0.510531 0.193265 0.366565
231 F 0.370447 0.36423 0.342462
257 F 0.36664 0.352745 0.366887
433 C 0.369709 0.364901 0.372132
297 F 0.324786 0.370226 0.367282
13 F 0.392878 0.369284 0.325028
74 F 0.405054 0.333261 0.314394
494 S 0.498985 0.332348 0.373352
470 O 0.502416 0.317386 0.369619
478 O 0.502673 0.341727 0.361252
489 O 0.300795 0.390145 0.362293
471 O 0.318168 0.409022 0.359682
498 S 0.315568 0.39468 0.36613
148 F 0.339611 0.417991 0.337552
155 F 0.352142 0.434716 0.33946
177 F 0.366592 0.4126 0.342939
185 F 0.348032 0.395847 0.325801
201 F 0.366648 0.377947 0.319232
239 F 0.369581 0.388654 0.369104
282 F 0.345619 0.398533 0.358716
290 F 0.326926 0.379885 0.347618
365 C 0.343407 0.430194 0.317309
372 C 0.349499 0.424342 0.330545
381 C 0.362093 0.414724 0.329878
393 C 0.360522 0.400705 0.32264
399 C 0.371106 0.38919 0.325898
415 C 0.373254 0.375996 0.348716
425 C 0.365835 0.376905 0.362757
442 C 0.342306 0.386502 0.36476
450 C 0.327869 0.38232 0.361162
458 O 0.368868 0.386909 0.340143
466 O 0.351354 0.376293 0.36018
164 F 0.372262 0.421786 0.324341
140 F 0.331848 0.436724 0.32035
225 F 0.386792 0.377195 0.350496
1 F 0.408279 0.383054 0.319741
213 F 0.392055 0.399115 0.331672
306 C 0.395115 0.379938 0.316908
407 C 0.386044 0.392369 0.32115
56 F 0.348487 0.485272 0.31486
59 F 0.364588 0.496497 0.323233
105 F 0.34806 0.458747 0.321522
112 F 0.367574 0.449152 0.322779
354 C 0.357818 0.452971 0.313888
66 F 0.375934 0.473788 0.322116
206 F 0.342313 0.5327 0.324452
410 C 0.349016 0.537822 0.313585
457 O 0.332351 0.556279 0.313118
12 F 0.366885 0.522406 0.317479
214 F 0.357229 0.546891 0.319733
226 F 0.318068 0.545969 0.327433
418 C 0.319015 0.556185 0.318254
258 F 0.291732 0.566552 0.324579
266 F 0.299894 0.582687 0.337724
434 C 0.3025 0.570168 0.332769
249 F 0.302469 0.561571 0.343714
242 F 0.326278 0.57432 0.332229
271 F 0.316457 0.599518 0.32238
426 C 0.315708 0.570079 0.324395
247 F 0.489462 0.138076 0.380586
24 F 0.496499 0.194869 0.385536
37 F 0.509369 0.210652 0.400815
42 F 0.525585 0.199976 0.390917
57 F 0.511113 0.232181 0.38315
70 F 0.541994 0.236566 0.385595
75 F 0.540588 0.220433 0.399117
85 F 0.537969 0.240333 0.414973
92 F 0.517179 0.234078 0.411614
310 C 0.505572 0.202581 0.37834
322 C 0.515642 0.209233 0.388489
323 C 0.521518 0.223304 0.384551
337 C 0.532512 0.230312 0.393681
345 C 0.527923 0.240037 0.40541
5 F 0.560774 0.282621 0.426894
101 F 0.513035 0.255298 0.393884
110 F 0.534103 0.260584 0.393547
118 F 0.513627 0.258367 0.422711
129 F 0.533431 0.26673 0.421236
137 F 0.512597 0.285159 0.42239
145 F 0.502327 0.276547 0.405879
153 F 0.51349 0.300133 0.3993
161 F 0.522478 0.284353 0.388451
165 F 0.545037 0.284932 0.40409
173 F 0.539922 0.303329 0.394579
181 F 0.526559 0.310549 0.420747
188 F 0.537247 0.293687 0.42928
350 C 0.524485 0.25496 0.401578
358 C 0.521954 0.264674 0.413649
370 C 0.515193 0.278577 0.410524
374 C 0.521792 0.28943 0.401221
386 C 0.535975 0.295224 0.40511
390 C 0.537706 0.302779 0.419006
398 C 0.550303 0.312353 0.420524
14 F 0.580866 0.288636 0.423388
305 C 0.569187 0.293518 0.428535
210 F 0.565712 0.301612 0.405721
406 C 0.564668 0.305415 0.418978
263 F 0.362742 0.365666 0.384008
250 F 0.383008 0.365273 0.37521
486 O 0.483276 0.333841 0.375868
269 F 0.5265 0.346982 0.3747
197 F 0.549972 0.317896 0.433101
221 F 0.560564 0.34092 0.416346
230 F 0.539048 0.340006 0.422215
238 F 0.551104 0.339235 0.388359
246 F 0.560236 0.363023 0.4005
254 F 0.541221 0.366021 0.410118
262 F 0.54297 0.366846 0.388461
278 F 0.527801 0.326355 0.381885
286 F 0.504986 0.330289 0.398377
294 F 0.503675 0.351039 0.390672
414 C 0.548158 0.337 0.412251
421 C 0.543964 0.344622 0.399045
429 C 0.547096 0.360039 0.399493
438 C 0.523383 0.338857 0.385362
445 C 0.508052 0.338348 0.38766
454 O 0.548737 0.322675 0.410123
461 O 0.529424 0.343417 0.397571
204 F 0.574302 0.315391 0.419849
274 F 0.343776 0.387593 0.378391
481 O 0.315542 0.396725 0.381855
23 F 0.557643 0.298016 0.449117
41 F 0.571833 0.284784 0.464994
44 F 0.575871 0.273206 0.44772
51 F 0.595645 0.300271 0.461428
65 F 0.599118 0.289992 0.443067
69 F 0.614267 0.276463 0.458397
76 F 0.596804 0.264299 0.460246
84 F 0.601417 0.265577 0.485191
93 F 0.590238 0.283369 0.483964
100 F 0.614428 0.298527 0.480252
314 C 0.570439 0.296704 0.444012
321 C 0.57815 0.285899 0.452791
327 C 0.593511 0.288015 0.455354
335 C 0.601352 0.277009 0.463456
344 C 0.602012 0.277869 0.479136
349 C 0.614268 0.285658 0.485226
31 F 0.576118 0.309373 0.446221
113 F 0.625833 0.279552 0.480696
159 F 0.641944 0.298461 0.490063
2 F 0.674309 0.23343 0.522121
19 F 0.650997 0.229343 0.534323
33 F 0.652667 0.246206 0.54788
35 F 0.659478 0.21697 0.555276
303 C 0.6699 0.243674 0.530386
311 C 0.660526 0.236756 0.541266
318 C 0.66784 0.227359 0.551748
45 F 0.678302 0.221078 0.545393
9 F 0.681388 0.248118 0.536273
125 F 0.617832 0.273654 0.506073
357 C 0.615115 0.286125 0.500938
115 F 0.602692 0.289282 0.505955
135 F 0.624342 0.295672 0.521067
143 F 0.620977 0.309088 0.504788
376 C 0.640953 0.295555 0.503458
152 F 0.647378 0.306617 0.50863
168 F 0.643598 0.271618 0.500896
172 F 0.661305 0.283342 0.500499
180 F 0.653753 0.291774 0.528778
189 F 0.640283 0.275004 0.527927
196 F 0.663979 0.269967 0.540381
209 F 0.66842 0.255079 0.509023
216 F 0.649987 0.251576 0.519168
367 C 0.625659 0.29611 0.507186
384 C 0.649146 0.282626 0.507063
389 C 0.651953 0.279798 0.522325
397 C 0.663836 0.270295 0.526707
405 C 0.662992 0.255259 0.521538
453 O 0.675698 0.277779 0.522216
277 F 0.676484 0.30935 0.51242
229 F 0.690772 0.274812 0.539919
413 C 0.689617 0.276871 0.526172
222 F 0.69486 0.265551 0.520047
237 F 0.696142 0.290211 0.508016
245 F 0.719915 0.279436 0.520081
253 F 0.714768 0.289894 0.538551
261 F 0.718907 0.301258 0.520626
422 C 0.697201 0.289781 0.521659
430 C 0.712473 0.289901 0.525135
462 O 0.691367 0.301365 0.528134
285 F 0.671844 0.318813 0.538873
446 C 0.682022 0.323634 0.531065
469 O 0.663085 0.335118 0.513417
485 O 0.670657 0.349333 0.533678
493 S 0.67563 0.338513 0.522765
437 C 0.686747 0.313074 0.520701
477 O 0.686963 0.345147 0.513524
270 F 0.697039 0.318165 0.513102
293 F 0.69218 0.32761 0.539267
120 F 0.672315 0.183709 0.583871
133 F 0.659907 0.174933 0.605958
187 F 0.680072 0.17435 0.623501
43 F 0.728759 0.17801 0.619204
38 F 0.72926 0.156811 0.623864
78 F 0.753644 0.171731 0.617585
82 F 0.770863 0.152182 0.620819
215 F 0.828131 0.139878 0.624601
55 F 0.66274 0.236135 0.574044
62 F 0.677566 0.246572 0.562775
91 F 0.681358 0.202568 0.566768
99 F 0.65976 0.210661 0.583704
109 F 0.674571 0.215948 0.598875
126 F 0.683619 0.190093 0.600702
144 F 0.647973 0.189717 0.596207
158 F 0.654857 0.209157 0.614381
329 C 0.673231 0.233554 0.565117
338 C 0.684645 0.225836 0.572928
343 C 0.683064 0.210809 0.577709
348 C 0.672127 0.207454 0.588481
361 C 0.671805 0.192694 0.594196
368 C 0.659758 0.188582 0.60349
377 C 0.657671 0.196022 0.617275
150 F 0.645801 0.19171 0.623047
167 F 0.679978 0.202102 0.623836
72 F 0.688203 0.233357 0.583828
79 F 0.695837 0.226842 0.564908
83 F 0.695349 0.206923 0.582566
7 F 0.704417 0.18836 0.624933
136 F 0.79143 0.121263 0.658388
178 F 0.821635 0.124124 0.66339
194 F 0.841102 0.12241 0.644368
292 F 0.617355 0.177898 0.671646
444 C 0.623862 0.184377 0.661387
284 F 0.626349 0.174497 0.652029
179 F 0.661873 0.173529 0.635366
195 F 0.684757 0.16651 0.648617
220 F 0.681535 0.17723 0.677222
228 F 0.666603 0.164831 0.667385
388 C 0.673266 0.181203 0.633634
396 C 0.681926 0.179955 0.646656
412 C 0.670345 0.177636 0.669726
452 O 0.673118 0.184787 0.657278
460 O 0.646462 0.181521 0.670445
420 C 0.658851 0.184768 0.677683
25 F 0.705363 0.162049 0.631707
30 F 0.715195 0.165154 0.650458
54 F 0.741392 0.162264 0.649561
63 F 0.741255 0.183107 0.644435
203 F 0.700809 0.185853 0.659936
302 C 0.708062 0.184755 0.637671
313 C 0.71457 0.170355 0.63761
316 C 0.728493 0.16912 0.629895
325 C 0.741758 0.170662 0.63841
71 F 0.764724 0.178531 0.6343
90 F 0.753258 0.144679 0.631063
98 F 0.764798 0.153214 0.655961
107 F 0.781792 0.161653 0.644816
119 F 0.770686 0.127417 0.642417
127 F 0.788586 0.136391 0.63473
142 F 0.777252 0.133309 0.66853
151 F 0.80255 0.137746 0.676559
160 F 0.79374 0.154829 0.668047
336 C 0.755732 0.168694 0.630789
342 C 0.762894 0.15458 0.631874
347 C 0.772059 0.151708 0.644359
355 C 0.7797 0.137836 0.645194
369 C 0.786965 0.134134 0.658836
378 C 0.798921 0.142759 0.664177
166 F 0.80797 0.151262 0.643556
385 C 0.811986 0.144923 0.655247
186 F 0.814145 0.124246 0.643043
170 F 0.819656 0.154365 0.661714
202 F 0.849196 0.142816 0.628628
207 F 0.834748 0.156829 0.6373
219 F 0.860706 0.152997 0.65188
227 F 0.864014 0.131499 0.655401
235 F 0.854068 0.157678 0.678332
387 C 0.820868 0.132085 0.652145
395 C 0.835707 0.134795 0.647408
403 C 0.836869 0.143463 0.634529
411 C 0.85695 0.142394 0.65987
419 C 0.860259 0.145476 0.6749
427 C 0.875461 0.14734 0.677812
451 O 0.842617 0.140036 0.658859
459 O 0.855101 0.134488 0.683034
275 F 0.833402 0.14073 0.686209
243 F 0.881013 0.157381 0.670382
251 F 0.883003 0.135938 0.675808
484 O 0.598562 0.187611 0.650638
468 O 0.617328 0.203354 0.641656
476 O 0.606983 0.205974 0.665519
492 S 0.611673 0.195729 0.65448
171 F 0.665026 0.203017 0.639058
236 F 0.661527 0.19844 0.677591
268 F 0.63337 0.199711 0.676793
276 F 0.642594 0.19924 0.656708
383 C 0.669018 0.195279 0.628178
436 C 0.636835 0.191417 0.6664
404 C 0.695739 0.187514 0.647337
15 F 0.717608 0.194231 0.640702
208 F 0.692697 0.201004 0.647263
283 F 0.8379 0.112209 0.689695
291 F 0.852293 0.117407 0.705642
443 C 0.841133 0.122054 0.699157
483 O 0.825757 0.110199 0.719286
491 S 0.827915 0.123827 0.711468
252 F 0.655656 0.166716 0.693577
244 F 0.667864 0.184042 0.700329
428 C 0.657249 0.180237 0.692592
260 F 0.64591 0.185925 0.698024
467 O 0.814042 0.129401 0.705946
267 F 0.847935 0.145024 0.702179
435 C 0.84427 0.135794 0.692569
475 O 0.833357 0.133756 0.722616
259 F 0.877423 0.150797 0.690931
ITEM: TIMESTEP
10000
ITEM: NUMBER OF ATOMS
498
ITEM: BOX BOUNDS pp pp pp
0.0000000000000000e+00 1.0000000000000000e+02
0.0000000000000000e+00 1.0000000000000000e+02
0.0000000000000000e+00 1.0000000000000000e+02
ITEM: ATOMS id element xs ys zs
296 F 0.391313 0.280318 0.182533
488 O 0.386518 0.311157 0.185593
265 F 0.385361 0.237605 0.199171
224 F 0.412824 0.243112 0.230314
248 F 0.39526 0.227665 0.215904
256 F 0.407663 0.237706 0.200318
432 C 0.395983 0.238491 0.207743
273 F 0.374087 0.270214 0.202277
480 O 0.366385 0.297582 0.190033
496 S 0.381206 0.299981 0.19551
146 F 0.405016 0.310007 0.231955
175 F 0.393452 0.287916 0.243699
183 F 0.421086 0.289433 0.232703
199 F 0.42877 0.264239 0.241078
233 F 0.418787 0.258899 0.216351
241 F 0.384616 0.251887 0.223199
281 F 0.38697 0.279517 0.218183
288 F 0.404622 0.289106 0.197062
392 C 0.417447 0.285144 0.245293
401 C 0.416148 0.26919 0.244736
417 C 0.408669 0.254793 0.2246
424 C 0.396021 0.25223 0.215343
440 C 0.386907 0.274303 0.205438
449 C 0.391654 0.285139 0.195271
456 O 0.406587 0.265405 0.234385
465 O 0.395424 0.262433 0.204708
373 C 0.404502 0.309467 0.245537
473 O 0.380774 0.306682 0.210032
379 C 0.404511 0.294015 0.249373
132 F 0.427441 0.316438 0.245022
138 F 0.413062 0.332119 0.245749
156 F 0.391795 0.314545 0.247477
36 F 0.432 0.560389 0.249702
32 F 0.429887 0.584005 0.235041
17 F 0.451177 0.603978 0.238791
21 F 0.450186 0.576752 0.237513
308 C 0.439786 0.582721 0.244502
300 C 0.444982 0.596835 0.248873
479 O 0.476979 0.112523 0.311533
487 O 0.495308 0.117735 0.294505
495 S 0.486726 0.124036 0.306196
472 O 0.47684 0.134747 0.299993
149 F 0.480868 0.173359 0.305976
375 C 0.47766 0.185956 0.310885
157 F 0.46368 0.186119 0.309671
205 F 0.410533 0.248816 0.25641
64 F 0.43018 0.238627 0.29333
29 F 0.437358 0.247671 0.262896
53 F 0.447536 0.232971 0.282483
94 F 0.472286 0.239447 0.29427
102 F 0.459934 0.212978 0.293485
121 F 0.488608 0.218774 0.294338
134 F 0.496848 0.194259 0.29946
141 F 0.478981 0.194182 0.288146
326 C 0.443236 0.242047 0.291686
334 C 0.451181 0.239847 0.305359
341 C 0.465685 0.233617 0.304838
352 C 0.466909 0.217907 0.304264
360 C 0.48171 0.212169 0.303952
363 C 0.483494 0.196835 0.300972
191 F 0.428185 0.288846 0.252704
409 C 0.412369 0.262317 0.258593
309 C 0.436314 0.258527 0.270699
8 F 0.420845 0.276212 0.276678
11 F 0.414992 0.25576 0.281224
124 F 0.421824 0.30877 0.272068
163 F 0.402073 0.293055 0.262928
212 F 0.399573 0.26597 0.26185
304 C 0.421223 0.263244 0.271797
77 F 0.451847 0.252012 0.311623
315 C 0.443645 0.256359 0.284667
18 F 0.44324 0.268236 0.263699
34 F 0.456977 0.259587 0.283117
46 F 0.43899 0.265442 0.293538
108 F 0.395451 0.318424 0.27403
40 F 0.407139 0.36309 0.284922
50 F 0.383062 0.35136 0.285026
58 F 0.380346 0.352538 0.305742
73 F 0.38581 0.326738 0.298838
87 F 0.41378 0.318976 0.296264
95 F 0.41907 0.3388 0.291852
103 F 0.40163 0.338732 0.26943
114 F 0.428974 0.328726 0.268583
319 C 0.400397 0.362902 0.297129
324 C 0.390496 0.350631 0.296656
332 C 0.396254 0.336043 0.298785
340 C 0.408273 0.330313 0.290378
353 C 0.405911 0.327136 0.275218
359 C 0.417639 0.320971 0.266724
366 C 0.415331 0.319423 0.250976
47 F 0.410423 0.360107 0.306239
123 F 0.360167 0.433202 0.301859
131 F 0.336532 0.420564 0.309088
192 F 0.356818 0.402741 0.308197
28 F 0.381847 0.3779 0.294178
307 C 0.394372 0.37709 0.300201
22 F 0.401382 0.387145 0.293575
218 F 0.38368 0.401665 0.309277
39 F 0.357905 0.492683 0.2887
89 F 0.3719 0.456065 0.29675
96 F 0.353802 0.467496 0.295191
117 F 0.34179 0.444478 0.297455
331 C 0.370198 0.475778 0.310661
346 C 0.36298 0.463113 0.304334
356 C 0.350028 0.44019 0.307962
330 C 0.361656 0.489059 0.312076
317 C 0.361594 0.499543 0.300038
81 F 0.381723 0.47886 0.303464
234 F 0.311113 0.549921 0.310608
6 F 0.369015 0.530958 0.298845
20 F 0.347552 0.516271 0.289832
48 F 0.374315 0.503686 0.296119
169 F 0.368478 0.557857 0.297376
193 F 0.350139 0.543572 0.283091
200 F 0.331113 0.535111 0.301294
301 C 0.36028 0.525466 0.307867
312 C 0.353048 0.51264 0.302064
394 C 0.34556 0.552311 0.292835
402 C 0.340469 0.544463 0.305689
122 F 0.373391 0.549896 0.270791
184 F 0.33431 0.557316 0.286716
26 F 0.341538 0.509617 0.309111
80 F 0.42457 0.55532 0.275326
88 F 0.399856 0.547302 0.272433
116 F 0.376195 0.560484 0.252671
339 C 0.401941 0.560249 0.267499
362 C 0.375022 0.562526 0.266045
97 F 0.402666 0.557513 0.25406
298 F 0.29936 0.596352 0.303855
490 O 0.312518 0.620148 0.286228
447 C 0.312844 0.596126 0.301938
289 F 0.315226 0.587969 0.291221
380 C 0.356407 0.563614 0.295104
130 F 0.351332 0.564771 0.263007
139 F 0.363203 0.582918 0.261295
147 F 0.34615 0.58157 0.283128
154 F 0.366669 0.584238 0.288544
176 F 0.353579 0.570449 0.307027
364 C 0.362093 0.571294 0.268936
371 C 0.358009 0.574589 0.283739
474 O 0.335178 0.611128 0.295364
497 S 0.319583 0.612519 0.298442
482 O 0.318335 0.621752 0.311364
52 F 0.414012 0.583879 0.256869
60 F 0.427309 0.587233 0.273092
67 F 0.413734 0.569957 0.286198
104 F 0.38956 0.581208 0.266537
106 F 0.388231 0.569672 0.284824
320 C 0.435321 0.572646 0.255734
328 C 0.423041 0.577069 0.264677
333 C 0.415508 0.56573 0.273298
351 C 0.388921 0.568508 0.271066
16 F 0.43503 0.604988 0.253701
3 F 0.453881 0.595386 0.259235
49 F 0.445837 0.569252 0.264132
264 F 0.489841 0.1218 0.363269
295 F 0.505203 0.121064 0.324602
448 C 0.496288 0.130566 0.320145
272 F 0.479823 0.125142 0.336666
174 F 0.473852 0.176193 0.332944
223 F 0.494541 0.164399 0.370754
240 F 0.477659 0.146935 0.356177
280 F 0.478914 0.145389 0.327729
382 C 0.481048 0.186038 0.326492
391 C 0.496248 0.18379 0.330045
416 C 0.498609 0.159175 0.358673
423 C 0.491611 0.145349 0.35573
431 C 0.49601 0.134002 0.365881
439 C 0.487625 0.135661 0.332109
455 O 0.494297 0.168707 0.348519
464 O 0.496355 0.141237 0.342496
255 F 0.509564 0.131566 0.36558
182 F 0.501122 0.172855 0.323139
198 F 0.513959 0.179584 0.345149
232 F 0.512549 0.157998 0.359037
287 F 0.503739 0.140986 0.315354
400 C 0.50026 0.181455 0.34515
4 F 0.510908 0.184619 0.373471
68 F 0.443616 0.232907 0.314159
211 F 0.484436 0.190586 0.360234
408 C 0.497033 0.193128 0.355437
86 F 0.472281 0.238013 0.316138
111 F 0.46029 0.21247 0.315101
128 F 0.488068 0.215245 0.315542
162 F 0.476043 0.197298 0.332244
217 F 0.495223 0.205014 0.348579
27 F 0.496417 0.217754 0.370496
10 F 0.519344 0.200312 0.36109
61 F 0.526102 0.223742 0.372222
190 F 0.503835 0.194337 0.325404
299 C 0.507495 0.196163 0.367007
231 F 0.37064 0.363664 0.340805
257 F 0.366508 0.351932 0.36534
433 C 0.370055 0.364223 0.370273
297 F 0.323819 0.368242 0.364521
466 O 0.351511 0.374357 0.358405
13 F 0.391556 0.370066 0.323155
74 F 0.399688 0.335308 0.312128
250 F 0.38342 0.36433 0.37246
486 O 0.488417 0.326348 0.371721
494 S 0.503918 0.329773 0.369458
470 O 0.511237 0.31633 0.365242
478 O 0.505365 0.340035 0.357472
269 F 0.529045 0.348651 0.373181
489 O 0.300449 0.38806 0.360856
471 O 0.317804 0.406548 0.356833
498 S 0.315415 0.392605 0.363994
148 F 0.337278 0.417732 0.337006
155 F 0.35032 0.433863 0.339138
177 F 0.364695 0.41218 0.341831
185 F 0.346239 0.395186 0.325747
201 F 0.364827 0.377666 0.317479
239 F 0.369061 0.387576 0.367224
282 F 0.345371 0.396313 0.356584
290 F 0.326613 0.378843 0.345007
365 C 0.341306 0.430619 0.316999
372 C 0.347507 0.423829 0.330159
381 C 0.360184 0.414423 0.329069
393 C 0.358468 0.400662 0.321682
399 C 0.369109 0.389165 0.324269
415 C 0.373091 0.37569 0.347128
425 C 0.365807 0.375945 0.360809
442 C 0.342028 0.38446 0.362594
450 C 0.32764 0.380274 0.358801
458 O 0.368021 0.386196 0.338763
164 F 0.370772 0.421375 0.323888
140 F 0.32984 0.437683 0.320564
225 F 0.386706 0.377799 0.348157
1 F 0.406696 0.384436 0.319129
213 F 0.389497 0.399831 0.330154
306 C 0.393662 0.381218 0.315372
407 C 0.38373 0.392713 0.319788
56 F 0.349099 0.4855 0.316203
59 F 0.366004 0.496032 0.322869
105 F 0.347077 0.459107 0.322729
112 F 0.365992 0.448634 0.323026
354 C 0.356312 0.4532 0.314257
66 F 0.375856 0.47277 0.322858
258 F 0.292694 0.561314 0.328568
249 F 0.305076 0.557029 0.346006
206 F 0.344707 0.531033 0.325145
410 C 0.351318 0.536667 0.31431
457 O 0.333794 0.554751 0.313653
12 F 0.368741 0.521215 0.317859
214 F 0.359359 0.545858 0.320451
226 F 0.321529 0.543793 0.329481
418 C 0.320747 0.553377 0.319814
266 F 0.300393 0.577565 0.340645
434 C 0.303835 0.565785 0.335576
279 F 0.333259 0.589654 0.313893
441 C 0.319535 0.590129 0.314735
463 O 0.314147 0.576739 0.315781
242 F 0.327023 0.571024 0.334754
271 F 0.316167 0.597647 0.325786
426 C 0.316739 0.566986 0.326496
247 F 0.492827 0.137118 0.378876
24 F 0.490924 0.20166 0.38331
37 F 0.505786 0.213924 0.399911
42 F 0.521482 0.202338 0.391079
57 F 0.511189 0.235679 0.382157
70 F 0.540651 0.237628 0.387778
75 F 0.538626 0.220418 0.399632
85 F 0.535742 0.239919 0.416671
92 F 0.515602 0.234002 0.41278
310 C 0.502177 0.207187 0.377111
322 C 0.512507 0.212329 0.388075
323 C 0.520138 0.225633 0.384409
337 C 0.531024 0.230876 0.394907
345 C 0.526279 0.240067 0.406856
5 F 0.562808 0.284405 0.42575
101 F 0.510012 0.255917 0.397736
110 F 0.531072 0.26096 0.395079
118 F 0.5155 0.257288 0.426625
129 F 0.534764 0.26683 0.420704
137 F 0.513296 0.284395 0.428023
145 F 0.500885 0.275742 0.413001
153 F 0.510403 0.299213 0.405063
161 F 0.518311 0.284188 0.392029
165 F 0.543075 0.285771 0.40446
173 F 0.535969 0.304135 0.396387
181 F 0.525829 0.310823 0.423942
188 F 0.538327 0.294494 0.43039
350 C 0.5223 0.255155 0.403995
358 C 0.521786 0.264454 0.41667
370 C 0.514337 0.278344 0.415344
374 C 0.519555 0.288979 0.404914
386 C 0.533741 0.295555 0.406821
390 C 0.536922 0.303531 0.419895
14 F 0.581901 0.291956 0.423092
305 C 0.569618 0.29606 0.428238
210 F 0.564303 0.302688 0.405749
406 C 0.563899 0.307381 0.418877
263 F 0.364239 0.364711 0.382882
398 C 0.549363 0.313786 0.420601
197 F 0.549824 0.319874 0.432888
221 F 0.561234 0.341278 0.416011
230 F 0.539961 0.341529 0.421902
238 F 0.55405 0.341678 0.388658
246 F 0.560993 0.366278 0.402407
254 F 0.539548 0.367191 0.410273
262 F 0.544062 0.368748 0.388977
278 F 0.533398 0.327734 0.379734
286 F 0.508843 0.327713 0.394794
294 F 0.505245 0.348389 0.388593
414 C 0.548682 0.33835 0.411632
421 C 0.545643 0.346432 0.398657
429 C 0.547832 0.362163 0.400277
438 C 0.526277 0.339233 0.383154
445 C 0.511002 0.336654 0.384757
454 O 0.547913 0.323995 0.41015
461 O 0.531406 0.344215 0.395798
204 F 0.573088 0.317276 0.418859
274 F 0.342704 0.386116 0.376272
481 O 0.316071 0.395355 0.379501
23 F 0.55823 0.300787 0.448551
41 F 0.572051 0.287402 0.465289
44 F 0.574455 0.2751 0.447579
51 F 0.596291 0.300635 0.461605
65 F 0.599488 0.289747 0.443349
69 F 0.612348 0.273387 0.458526
76 F 0.593583 0.264854 0.461281
84 F 0.599025 0.266229 0.486422
93 F 0.590512 0.285181 0.484327
100 F 0.616209 0.296828 0.481172
314 C 0.5712 0.298701 0.443742
321 C 0.57786 0.287304 0.452755
327 C 0.593398 0.288585 0.455633
335 C 0.600091 0.276643 0.463937
344 C 0.601325 0.278031 0.479887
349 C 0.614602 0.283944 0.486076
31 F 0.577205 0.310824 0.445742
113 F 0.625523 0.277082 0.481355
159 F 0.642313 0.296421 0.491131
2 F 0.674926 0.233262 0.51999
19 F 0.653676 0.228127 0.533653
33 F 0.654765 0.244399 0.547157
35 F 0.662829 0.215884 0.554491
303 C 0.671311 0.24295 0.529184
311 C 0.662976 0.235601 0.540416
318 C 0.670965 0.226414 0.550849
45 F 0.681553 0.220622 0.54448
9 F 0.683365 0.247076 0.534238
62 F 0.681715 0.245453 0.560949
125 F 0.61756 0.27235 0.507554
357 C 0.615513 0.284537 0.501743
115 F 0.603116 0.28745 0.506918
135 F 0.624054 0.294428 0.521835
143 F 0.620873 0.307561 0.505812
376 C 0.640812 0.294132 0.504629
152 F 0.647008 0.305148 0.510173
168 F 0.643717 0.270519 0.502664
172 F 0.66126 0.282526 0.502386
180 F 0.652282 0.289751 0.531664
189 F 0.639976 0.27226 0.529491
196 F 0.664944 0.268513 0.541576
209 F 0.669795 0.255829 0.508493
216 F 0.651544 0.250792 0.518628
367 C 0.625384 0.294803 0.508183
384 C 0.649221 0.281521 0.508993
389 C 0.651386 0.277988 0.524443
397 C 0.664551 0.269311 0.527717
405 C 0.66456 0.254672 0.521371
453 O 0.675431 0.277783 0.523386
277 F 0.674137 0.308991 0.511078
229 F 0.69193 0.275776 0.539807
413 C 0.689627 0.277523 0.526276
222 F 0.695215 0.266799 0.519963
237 F 0.694324 0.2911 0.507533
245 F 0.719261 0.282181 0.520202
253 F 0.712635 0.293458 0.538389
261 F 0.716552 0.303822 0.519158
422 C 0.695995 0.290932 0.521287
430 C 0.71135 0.292161 0.524895
462 O 0.688307 0.301948 0.527126
285 F 0.667209 0.318704 0.537051
446 C 0.677773 0.323523 0.529911
469 O 0.659047 0.33643 0.512301
485 O 0.667218 0.348988 0.533111
493 S 0.671905 0.338689 0.521589
437 C 0.683738 0.313342 0.519938
477 O 0.683247 0.345771 0.512712
270 F 0.693997 0.318706 0.512846
293 F 0.687271 0.327014 0.539347
120 F 0.674725 0.184079 0.583486
133 F 0.663272 0.174076 0.604885
187 F 0.682885 0.174551 0.624075
43 F 0.728996 0.176787 0.620249
78 F 0.754304 0.171533 0.617751
82 F 0.769058 0.150419 0.620962
55 F 0.665749 0.236132 0.572365
91 F 0.683559 0.202536 0.566691
99 F 0.661476 0.210468 0.583344
109 F 0.674906 0.216247 0.598982
126 F 0.685765 0.190091 0.600467
144 F 0.650465 0.188689 0.59576
158 F 0.655004 0.207048 0.614818
329 C 0.676419 0.233033 0.564103
338 C 0.687414 0.225414 0.572551
343 C 0.684966 0.210896 0.577732
348 C 0.673846 0.207597 0.588382
361 C 0.673871 0.192851 0.593992
368 C 0.662006 0.187723 0.603018
377 C 0.659278 0.194378 0.617047
150 F 0.647752 0.188699 0.622475
167 F 0.680736 0.201215 0.624356
72 F 0.690471 0.233129 0.583472
79 F 0.699186 0.2256 0.565533
83 F 0.696906 0.20654 0.583193
136 F 0.791596 0.120694 0.656183
178 F 0.821445 0.123968 0.662573
194 F 0.84136 0.123218 0.645659
292 F 0.616098 0.178965 0.674458