LAMMPS data file using Dreiding for structure

2700  atoms
3885  bonds
7450  angles
14355  dihedrals

3  atom types
4  bond types
2  angle types
19  dihedral types

0.0000000000000000e+00 4.0000000000000000e+01 xlo xhi
0.0000000000000000e+00 4.0000000000000000e+01 ylo yhi
0.0000000000000000e+00 1.0000000000000000e+02 zlo zhi


Masses

  3     12.011000     # C_3
  2     12.011000     # C_R
  1     12.011000     # C_1

Atoms

     1   1   1   -0.01700      1.92100000      1.58000000      0.00000000   0   0   0
     2   1   1   -0.04418      1.21200000      2.80800000      0.00000000   0   0   0
     3   1   1   -0.05138      3.33800000      1.58000000      0.00000000   0   0   0
     4   1   2    0.05160      4.04700000      2.80800000      0.00000000   0   0   0
     5   1   1   -0.05957      6.17500000      1.58000000      0.00000000   0   0   0
     6   1   2    0.04981      5.46600000      2.80800000      0.00000000   0   0   0
     7   1   1   -0.05957      7.59200000      1.58000000      0.00000000   0   0   0
     8   1   2    0.04975      8.30200000      2.80800000      0.00000000   0   0   0
     9   1   1   -0.05957     10.42900000      1.58000000      0.00000000   0   0   0
    10   1   2    0.04975      9.72000000      2.80800000      0.00000000   0   0   0
    11   1   1   -0.05957     11.84700000      1.58000000      0.00000000   0   0   0
    12   1   2    0.04975     12.55600000      2.80800000      0.00000000   0   0   0
    13   1   1   -0.05957     14.68300000      1.58000000      0.00000000   0   0   0
    14   1   2    0.04975     13.97400000      2.80800000      0.00000000   0   0   0
    15   1   1   -0.05957     16.10100000      1.58000000      0.00000000   0   0   0
    16   1   2    0.04975     16.81000000      2.80800000      0.00000000   0   0   0
    17   1   1   -0.05957     18.93700000      1.58000000      0.00000000   0   0   0
    18   1   2    0.04975     18.22700000      2.80800000      0.00000000   0   0   0
    19   1   1   -0.05957     20.35500000      1.58000000      0.00000000   0   0   0
    20   1   2    0.04975     21.06400000      2.80800000      0.00000000   0   0   0
    21   1   1   -0.05957     23.19100000      1.58000000      0.00000000   0   0   0
    22   1   2    0.04975     22.48200000      2.80800000      0.00000000   0   0   0
    23   1   1   -0.05957     24.60900000      1.58000000      0.00000000   0   0   0
    24   1   2    0.04975     25.31700000      2.80800000      0.00000000   0   0   0
    25   1   1   -0.05957     27.44500000      1.58000000      0.00000000   0   0   0
    26   1   2    0.04975     26.73600000      2.80800000      0.00000000   0   0   0
    27   1   1   -0.05957     28.86200000      1.58000000      0.00000000   0   0   0
    28   1   2    0.04975     29.57100000      2.80800000      0.00000000   0   0   0
    29   1   1   -0.05957     31.69900000      1.58000000      0.00000000   0   0   0
    30   1   2    0.04975     30.99000000      2.80800000      0.00000000   0   0   0
    31   1   1   -0.05957     33.11600000      1.58000000      0.00000000   0   0   0
    32   1   2    0.04981     33.82600000      2.80800000      0.00000000   0   0   0
    33   1   1   -0.05138     35.95300000      1.58000000      0.00000000   0   0   0
    34   1   2    0.05160     35.24400000      2.80800000      0.00000000   0   0   0
    35   1   1   -0.01700     37.37100000      1.58000000      0.00000000   0   0   0
    36   1   1   -0.04418     38.07900000      2.80800000      0.00000000   0   0   0
    37   1   2    0.07781      1.92100000      4.03600000      0.00000000   0   0   0
    38   1   1   -0.08581      1.21200000      5.26400000      0.00000000   0   0   0
    39   1   2    0.02361      3.33800000      4.03600000      0.00000000   0   0   0
    40   1   2    0.00316      4.04700000      5.26400000      0.00000000   0   0   0
    41   1   2    0.00911      6.17500000      4.03600000      0.00000000   0   0   0
    42   1   2    0.00079      5.46600000      5.26400000      0.00000000   0   0   0
    43   1   2    0.00910      7.59200000      4.03600000      0.00000000   0   0   0
    44   1   2    0.00070      8.30200000      5.26400000      0.00000000   0   0   0
    45   1   2    0.00910     10.42900000      4.03600000      0.00000000   0   0   0
    46   1   2    0.00070      9.72000000      5.26400000      0.00000000   0   0   0
    47   1   2    0.00910     11.84700000      4.03600000      0.00000000   0   0   0
    48   1   2    0.00070     12.55600000      5.26400000      0.00000000   0   0   0
    49   1   2    0.00910     14.68300000      4.03600000      0.00000000   0   0   0
    50   1   2    0.00070     13.97400000      5.26400000      0.00000000   0   0   0
    51   1   2    0.00910     16.10100000      4.03600000      0.00000000   0   0   0
    52   1   2    0.00070     16.81000000      5.26400000      0.00000000   0   0   0
    53   1   2    0.00910     18.93700000      4.03600000      0.00000000   0   0   0
    54   1   2    0.00070     18.22700000      5.26400000      0.00000000   0   0   0
    55   1   2    0.00910     20.35500000      4.03600000      0.00000000   0   0   0
    56   1   2    0.00070     21.06400000      5.26400000      0.00000000   0   0   0
    57   1   2    0.00910     23.19100000      4.03600000      0.00000000   0   0   0
    58   1   2    0.00070     22.48200000      5.26400000      0.00000000   0   0   0
    59   1   2    0.00910     24.60900000      4.03600000      0.00000000   0   0   0
    60   1   2    0.00070     25.31700000      5.26400000      0.00000000   0   0   0
    61   1   2    0.00910     27.44500000      4.03600000      0.00000000   0   0   0
    62   1   2    0.00070     26.73600000      5.26400000      0.00000000   0   0   0
    63   1   2    0.00910     28.86200000      4.03600000      0.00000000   0   0   0
    64   1   2    0.00070     29.57100000      5.26400000      0.00000000   0   0   0
    65   1   2    0.00910     31.69900000      4.03600000      0.00000000   0   0   0
    66   1   2    0.00070     30.99000000      5.26400000      0.00000000   0   0   0
    67   1   2    0.00911     33.11600000      4.03600000      0.00000000   0   0   0
    68   1   2    0.00079     33.82600000      5.26400000      0.00000000   0   0   0
    69   1   2    0.02361     35.95300000      4.03600000      0.00000000   0   0   0
    70   1   2    0.00316     35.24400000      5.26400000      0.00000000   0   0   0
    71   1   2    0.07781     37.37100000      4.03600000      0.00000000   0   0   0
    72   1   1   -0.08581     38.07900000      5.26400000      0.00000000   0   0   0
    73   1   2    0.06944      1.92100000      6.49200000      0.00000000   0   0   0
    74   1   1   -0.08650      1.21200000      7.72000000      0.00000000   0   0   0
    75   1   2    0.01457      3.33800000      6.49200000      0.00000000   0   0   0
    76   1   2    0.00245      4.04700000      7.72000000      0.00000000   0   0   0
    77   1   2    0.00003      6.17500000      6.49200000      0.00000000   0   0   0
    78   1   2    0.00009      5.46600000      7.72000000      0.00000000   0   0   0
    79   1   2    0.00002      7.59200000      6.49200000      0.00000000   0   0   0
    80   1   2    0.00000      8.30200000      7.72000000      0.00000000   0   0   0
    81   1   2    0.00002     10.42900000      6.49200000      0.00000000   0   0   0
    82   1   2    0.00000      9.72000000      7.72000000      0.00000000   0   0   0
    83   1   2    0.00002     11.84700000      6.49200000      0.00000000   0   0   0
    84   1   2    0.00000     12.55600000      7.72000000      0.00000000   0   0   0
    85   1   2    0.00002     14.68300000      6.49200000      0.00000000   0   0   0
    86   1   2    0.00000     13.97400000      7.72000000      0.00000000   0   0   0
    87   1   2    0.00002     16.10100000      6.49200000      0.00000000   0   0   0
    88   1   2    0.00000     16.81000000      7.72000000      0.00000000   0   0   0
    89   1   2    0.00002     18.93700000      6.49200000      0.00000000   0   0   0
    90   1   2    0.00000     18.22700000      7.72000000      0.00000000   0   0   0
    91   1   2    0.00002     20.35500000      6.49200000      0.00000000   0   0   0
    92   1   2    0.00000     21.06400000      7.72000000      0.00000000   0   0   0
    93   1   2    0.00002     23.19100000      6.49200000      0.00000000   0   0   0
    94   1   2    0.00000     22.48200000      7.72000000      0.00000000   0   0   0
    95   1   2    0.00002     24.60900000      6.49200000      0.00000000   0   0   0
    96   1   2    0.00000     25.31700000      7.72000000      0.00000000   0   0   0
    97   1   2    0.00002     27.44500000      6.49200000      0.00000000   0   0   0
    98   1   2    0.00000     26.73600000      7.72000000      0.00000000   0   0   0
    99   1   2    0.00002     28.86200000      6.49200000      0.00000000   0   0   0
   100   1   2    0.00000     29.57100000      7.72000000      0.00000000   0   0   0
   101   1   2    0.00002     31.69900000      6.49200000      0.00000000   0   0   0
   102   1   2    0.00000     30.99000000      7.72000000      0.00000000   0   0   0
   103   1   2    0.00003     33.11600000      6.49200000      0.00000000   0   0   0
   104   1   2    0.00009     33.82600000      7.72000000      0.00000000   0   0   0
   105   1   2    0.01457     35.95300000      6.49200000      0.00000000   0   0   0
   106   1   2    0.00245     35.24400000      7.72000000      0.00000000   0   0   0
   107   1   2    0.06944     37.37100000      6.49200000      0.00000000   0   0   0
   108   1   1   -0.08650     38.07900000      7.72000000      0.00000000   0   0   0
   109   1   2    0.06941      1.92100000      8.94800000      0.00000000   0   0   0
   110   1   1   -0.08650      1.21200000     10.17600000      0.00000000   0   0   0
   111   1   2    0.01454      3.33800000      8.94800000      0.00000000   0   0   0
   112   1   2    0.00245      4.04700000     10.17600000      0.00000000   0   0   0
   113   1   2    0.00000      6.17500000      8.94800000      0.00000000   0   0   0
   114   1   2    0.00009      5.46600000     10.17600000      0.00000000   0   0   0
   115   1   2    0.00000      7.59200000      8.94800000      0.00000000   0   0   0
   116   1   2    0.00000      8.30200000     10.17600000      0.00000000   0   0   0
   117   1   2    0.00000     10.42900000      8.94800000      0.00000000   0   0   0
   118   1   2    0.00000      9.72000000     10.17600000      0.00000000   0   0   0
   119   1   2    0.00000     11.84700000      8.94800000      0.00000000   0   0   0
   120   1   2    0.00000     12.55600000     10.17600000      0.00000000   0   0   0
   121   1   2    0.00000     14.68300000      8.94800000      0.00000000   0   0   0
   122   1   2    0.00000     13.97400000     10.17600000      0.00000000   0   0   0
   123   1   2    0.00000     16.10100000      8.94800000      0.00000000   0   0   0
   124   1   2    0.00000     16.81000000     10.17600000      0.00000000   0   0   0
   125   1   2    0.00000     18.93700000      8.94800000      0.00000000   0   0   0
   126   1   2    0.00000     18.22700000     10.17600000      0.00000000   0   0   0
   127   1   2    0.00000     20.35500000      8.94800000      0.00000000   0   0   0
   128   1   2    0.00000     21.06400000     10.17600000      0.00000000   0   0   0
   129   1   2    0.00000     23.19100000      8.94800000      0.00000000   0   0   0
   130   1   2    0.00000     22.48200000     10.17600000      0.00000000   0   0   0
   131   1   2    0.00000     24.60900000      8.94800000      0.00000000   0   0   0
   132   1   2    0.00000     25.31700000     10.17600000      0.00000000   0   0   0
   133   1   2    0.00000     27.44500000      8.94800000      0.00000000   0   0   0
   134   1   2    0.00000     26.73600000     10.17600000      0.00000000   0   0   0
   135   1   2    0.00000     28.86200000      8.94800000      0.00000000   0   0   0
   136   1   2    0.00000     29.57100000     10.17600000      0.00000000   0   0   0
   137   1   2    0.00000     31.69900000      8.94800000      0.00000000   0   0   0
   138   1   2    0.00000     30.99000000     10.17600000      0.00000000   0   0   0
   139   1   2    0.00000     33.11600000      8.94800000      0.00000000   0   0   0
   140   1   2    0.00009     33.82600000     10.17600000      0.00000000   0   0   0
   141   1   2    0.01454     35.95300000      8.94800000      0.00000000   0   0   0
   142   1   2    0.00245     35.24400000     10.17600000      0.00000000   0   0   0
   143   1   2    0.06941     37.37100000      8.94800000      0.00000000   0   0   0
   144   1   1   -0.08650     38.07900000     10.17600000      0.00000000   0   0   0
   145   1   2    0.06941      1.92100000     11.40400000      0.00000000   0   0   0
   146   1   1   -0.08650      1.21200000     12.63200000      0.00000000   0   0   0
   147   1   2    0.01454      3.33800000     11.40400000      0.00000000   0   0   0
   148   1   2    0.00245      4.04700000     12.63200000      0.00000000   0   0   0
   149   1   2    0.00000      6.17500000     11.40400000      0.00000000   0   0   0
   150   1   2    0.00009      5.46600000     12.63200000      0.00000000   0   0   0
   151   1   2    0.00000      7.59200000     11.40400000      0.00000000   0   0   0
   152   1   2    0.00000      8.30200000     12.63200000      0.00000000   0   0   0
   153   1   2    0.00000     10.42900000     11.40400000      0.00000000   0   0   0
   154   1   2    0.00000      9.72000000     12.63200000      0.00000000   0   0   0
   155   1   2    0.00000     11.84700000     11.40400000      0.00000000   0   0   0
   156   1   2    0.00000     12.55600000     12.63200000      0.00000000   0   0   0
   157   1   2    0.00000     14.68300000     11.40400000      0.00000000   0   0   0
   158   1   2    0.00000     13.97400000     12.63200000      0.00000000   0   0   0
   159   1   2    0.00000     16.10100000     11.40400000      0.00000000   0   0   0
   160   1   2    0.00000     16.81000000     12.63200000      0.00000000   0   0   0
   161   1   2    0.00000     18.93700000     11.40400000      0.00000000   0   0   0
   162   1   2    0.00000     18.22700000     12.63200000      0.00000000   0   0   0
   163   1   2    0.00000     20.35500000     11.40400000      0.00000000   0   0   0
   164   1   2    0.00000     21.06400000     12.63200000      0.00000000   0   0   0
   165   1   2    0.00000     23.19100000     11.40400000      0.00000000   0   0   0
   166   1   2    0.00000     22.48200000     12.63200000      0.00000000   0   0   0
   167   1   2    0.00000     24.60900000     11.40400000      0.00000000   0   0   0
   168   1   2    0.00000     25.31700000     12.63200000      0.00000000   0   0   0
   169   1   2    0.00000     27.44500000     11.40400000      0.00000000   0   0   0
   170   1   2    0.00000     26.73600000     12.63200000      0.00000000   0   0   0
   171   1   2    0.00000     28.86200000     11.40400000      0.00000000   0   0   0
   172   1   2    0.00000     29.57100000     12.63200000      0.00000000   0   0   0
   173   1   2    0.00000     31.69900000     11.40400000      0.00000000   0   0   0
   174   1   2    0.00000     30.99000000     12.63200000      0.00000000   0   0   0
   175   1   2    0.00000     33.11600000     11.40400000      0.00000000   0   0   0
   176   1   2    0.00009     33.82600000     12.63200000      0.00000000   0   0   0
   177   1   2    0.01454     35.95300000     11.40400000      0.00000000   0   0   0
   178   1   2    0.00245     35.24400000     12.63200000      0.00000000   0   0   0
   179   1   2    0.06941     37.37100000     11.40400000      0.00000000   0   0   0
   180   1   1   -0.08650     38.07900000     12.63200000      0.00000000   0   0   0
   181   1   2    0.06941      1.92100000     13.86000000      0.00000000   0   0   0
   182   1   1   -0.08650      1.21200000     15.08800000      0.00000000   0   0   0
   183   1   2    0.01454      3.33800000     13.86000000      0.00000000   0   0   0
   184   1   2    0.00245      4.04700000     15.08800000      0.00000000   0   0   0
   185   1   2    0.00000      6.17500000     13.86000000      0.00000000   0   0   0
   186   1   2    0.00009      5.46600000     15.08800000      0.00000000   0   0   0
   187   1   2    0.00000      7.59200000     13.86000000      0.00000000   0   0   0
   188   1   2    0.00000      8.30200000     15.08800000      0.00000000   0   0   0
   189   1   2    0.00000     10.42900000     13.86000000      0.00000000   0   0   0
   190   1   2    0.00000      9.72000000     15.08800000      0.00000000   0   0   0
   191   1   2    0.00000     11.84700000     13.86000000      0.00000000   0   0   0
   192   1   2    0.00000     12.55600000     15.08800000      0.00000000   0   0   0
   193   1   2    0.00000     14.68300000     13.86000000      0.00000000   0   0   0
   194   1   2    0.00000     13.97400000     15.08800000      0.00000000   0   0   0
   195   1   2    0.00000     16.10100000     13.86000000      0.00000000   0   0   0
   196   1   2    0.00000     16.81000000     15.08800000      0.00000000   0   0   0
   197   1   2    0.00000     18.93700000     13.86000000      0.00000000   0   0   0
   198   1   2    0.00000     18.22700000     15.08800000      0.00000000   0   0   0
   199   1   2    0.00000     20.35500000     13.86000000      0.00000000   0   0   0
   200   1   2    0.00000     21.06400000     15.08800000      0.00000000   0   0   0
   201   1   2    0.00000     23.19100000     13.86000000      0.00000000   0   0   0
   202   1   2    0.00000     22.48200000     15.08800000      0.00000000   0   0   0
   203   1   2    0.00000     24.60900000     13.86000000      0.00000000   0   0   0
   204   1   2    0.00000     25.31700000     15.08800000      0.00000000   0   0   0
   205   1   2    0.00000     27.44500000     13.86000000      0.00000000   0   0   0
   206   1   2    0.00000     26.73600000     15.08800000      0.00000000   0   0   0
   207   1   2    0.00000     28.86200000     13.86000000      0.00000000   0   0   0
   208   1   2    0.00000     29.57100000     15.08800000      0.00000000   0   0   0
   209   1   2    0.00000     31.69900000     13.86000000      0.00000000   0   0   0
   210   1   2    0.00000     30.99000000     15.08800000      0.00000000   0   0   0
   211   1   2    0.00000     33.11600000     13.86000000      0.00000000   0   0   0
   212   1   2    0.00009     33.82600000     15.08800000      0.00000000   0   0   0
   213   1   2    0.01454     35.95300000     13.86000000      0.00000000   0   0   0
   214   1   2    0.00245     35.24400000     15.08800000      0.00000000   0   0   0
   215   1   2    0.06941     37.37100000     13.86000000      0.00000000   0   0   0
   216   1   1   -0.08650     38.07900000     15.08800000      0.00000000   0   0   0
   217   1   2    0.06941      1.92100000     16.31600000      0.00000000   0   0   0
   218   1   1   -0.08650      1.21200000     17.54400000      0.00000000   0   0   0
   219   1   2    0.01454      3.33800000     16.31600000      0.00000000   0   0   0
   220   1   2    0.00245      4.04700000     17.54400000      0.00000000   0   0   0
   221   1   2    0.00000      6.17500000     16.31600000      0.00000000   0   0   0
   222   1   2    0.00009      5.46600000     17.54400000      0.00000000   0   0   0
   223   1   2    0.00000      7.59200000     16.31600000      0.00000000   0   0   0
   224   1   2    0.00000      8.30200000     17.54400000      0.00000000   0   0   0
   225   1   2    0.00000     10.42900000     16.31600000      0.00000000   0   0   0
   226   1   2    0.00000      9.72000000     17.54400000      0.00000000   0   0   0
   227   1   2    0.00000     11.84700000     16.31600000      0.00000000   0   0   0
   228   1   2    0.00000     12.55600000     17.54400000      0.00000000   0   0   0
   229   1   2    0.00000     14.68300000     16.31600000      0.00000000   0   0   0
   230   1   2    0.00000     13.97400000     17.54400000      0.00000000   0   0   0
   231   1   2    0.00000     16.10100000     16.31600000      0.00000000   0   0   0
   232   1   2    0.00000     16.81000000     17.54400000      0.00000000   0   0   0
   233   1   2    0.00000     18.93700000     16.31600000      0.00000000   0   0   0
   234   1   2    0.00000     18.22700000     17.54400000      0.00000000   0   0   0
   235   1   2    0.00000     20.35500000     16.31600000      0.00000000   0   0   0
   236   1   2    0.00000     21.06400000     17.54400000      0.00000000   0   0   0
   237   1   2    0.00000     23.19100000     16.31600000      0.00000000   0   0   0
   238   1   2    0.00000     22.48200000     17.54400000      0.00000000   0   0   0
   239   1   2    0.00000     24.60900000     16.31600000      0.00000000   0   0   0
   240   1   2    0.00000     25.31700000     17.54400000      0.00000000   0   0   0
   241   1   2    0.00000     27.44500000     16.31600000      0.00000000   0   0   0
   242   1   2    0.00000     26.73600000     17.54400000      0.00000000   0   0   0
   243   1   2    0.00000     28.86200000     16.31600000      0.00000000   0   0   0
   244   1   2    0.00000     29.57100000     17.54400000      0.00000000   0   0   0
   245   1   2    0.00000     31.69900000     16.31600000      0.00000000   0   0   0
   246   1   2    0.00000     30.99000000     17.54400000      0.00000000   0   0   0
   247   1   2    0.00000     33.11600000     16.31600000      0.00000000   0   0   0
   248   1   2    0.00009     33.82600000     17.54400000      0.00000000   0   0   0
   249   1   2    0.01454     35.95300000     16.31600000      0.00000000   0   0   0
   250   1   2    0.00245     35.24400000     17.54400000      0.00000000   0   0   0
   251   1   2    0.06941     37.37100000     16.31600000      0.00000000   0   0   0
   252   1   1   -0.08650     38.07900000     17.54400000      0.00000000   0   0   0
   253   1   2    0.06941      1.92100000     18.77200000      0.00000000   0   0   0
   254   1   1   -0.08650      1.21200000     20.00000000      0.00000000   0   0   0
   255   1   2    0.01454      3.33800000     18.77200000      0.00000000   0   0   0
   256   1   2    0.00245      4.04700000     20.00000000      0.00000000   0   0   0
   257   1   2    0.00000      6.17500000     18.77200000      0.00000000   0   0   0
   258   1   2    0.00009      5.46600000     20.00000000      0.00000000   0   0   0
   259   1   2    0.00000      7.59200000     18.77200000      0.00000000   0   0   0
   260   1   2    0.00000      8.30200000     20.00000000      0.00000000   0   0   0
   261   1   2    0.00000     10.42900000     18.77200000      0.00000000   0   0   0
   262   1   2    0.00000      9.72000000     20.00000000      0.00000000   0   0   0
   263   1   2    0.00000     11.84700000     18.77200000      0.00000000   0   0   0
   264   1   2    0.00000     12.55600000     20.00000000      0.00000000   0   0   0
   265   1   2    0.00000     14.68300000     18.77200000      0.00000000   0   0   0
   266   1   2    0.00000     13.97400000     20.00000000      0.00000000   0   0   0
   267   1   2    0.00000     16.10100000     18.77200000      0.00000000   0   0   0
   268   1   2    0.00000     16.81000000     20.00000000      0.00000000   0   0   0
   269   1   2    0.00000     18.93700000     18.77200000      0.00000000   0   0   0
   270   1   2    0.00000     18.22700000     20.00000000      0.00000000   0   0   0
   271   1   2    0.00000     20.35500000     18.77200000      0.00000000   0   0   0
   272   1   2    0.00000     21.06400000     20.00000000      0.00000000   0   0   0
   273   1   2    0.00000     23.19100000     18.77200000      0.00000000   0   0   0
   274   1   2    0.00000     22.48200000     20.00000000      0.00000000   0   0   0
   275   1   2    0.00000     24.60900000     18.77200000      0.00000000   0   0   0
   276   1   2    0.00000     25.31700000     20.00000000      0.00000000   0   0   0
   277   1   2    0.00000     27.44500000     18.77200000      0.00000000   0   0   0
   278   1   2    0.00000     26.73600000     20.00000000      0.00000000   0   0   0
   279   1   2    0.00000     28.86200000     18.77200000      0.00000000   0   0   0
   280   1   2    0.00000     29.57100000     20.00000000      0.00000000   0   0   0
   281   1   2    0.00000     31.69900000     18.77200000      0.00000000   0   0   0
   282   1   2    0.00000     30.99000000     20.00000000      0.00000000   0   0   0
   283   1   2    0.00000     33.11600000     18.77200000      0.00000000   0   0   0
   284   1   2    0.00009     33.82600000     20.00000000      0.00000000   0   0   0
   285   1   2    0.01454     35.95300000     18.77200000      0.00000000   0   0   0
   286   1   2    0.00245     35.24400000     20.00000000      0.00000000   0   0   0
   287   1   2    0.06941     37.37100000     18.77200000      0.00000000   0   0   0
   288   1   1   -0.08650     38.07900000     20.00000000      0.00000000   0   0   0
   289   1   2    0.06941      1.92100000     21.22800000      0.00000000   0   0   0
   290   1   1   -0.08650      1.21200000     22.45600000      0.00000000   0   0   0
   291   1   2    0.01454      3.33800000     21.22800000      0.00000000   0   0   0
   292   1   2    0.00245      4.04700000     22.45600000      0.00000000   0   0   0
   293   1   2    0.00000      6.17500000     21.22800000      0.00000000   0   0   0
   294   1   2    0.00009      5.46600000     22.45600000      0.00000000   0   0   0
   295   1   2    0.00000      7.59200000     21.22800000      0.00000000   0   0   0
   296   1   2    0.00000      8.30200000     22.45600000      0.00000000   0   0   0
   297   1   2    0.00000     10.42900000     21.22800000      0.00000000   0   0   0
   298   1   2    0.00000      9.72000000     22.45600000      0.00000000   0   0   0
   299   1   2    0.00000     11.84700000     21.22800000      0.00000000   0   0   0
   300   1   2    0.00000     12.55600000     22.45600000      0.00000000   0   0   0
   301   1   2    0.00000     14.68300000     21.22800000      0.00000000   0   0   0
   302   1   2    0.00000     13.97400000     22.45600000      0.00000000   0   0   0
   303   1   2    0.00000     16.10100000     21.22800000      0.00000000   0   0   0
   304   1   2    0.00000     16.81000000     22.45600000      0.00000000   0   0   0
   305   1   2    0.00000     18.93700000     21.22800000      0.00000000   0   0   0
   306   1   2    0.00000     18.22700000     22.45600000      0.00000000   0   0   0
   307   1   2    0.00000     20.35500000     21.22800000      0.00000000   0   0   0
   308   1   2    0.00000     21.06400000     22.45600000      0.00000000   0   0   0
   309   1   2    0.00000     23.19100000     21.22800000      0.00000000   0   0   0
   310   1   2    0.00000     22.48200000     22.45600000      0.00000000   0   0   0
   311   1   2    0.00000     24.60900000     21.22800000      0.00000000   0   0   0
   312   1   2    0.00000     25.31700000     22.45600000      0.00000000   0   0   0
   313   1   2    0.00000     27.44500000     21.22800000      0.00000000   0   0   0
   314   1   2    0.00000     26.73600000     22.45600000      0.00000000   0   0   0
   315   1   2    0.00000     28.86200000     21.22800000      0.00000000   0   0   0
   316   1   2    0.00000     29.57100000     22.45600000      0.00000000   0   0   0
   317   1   2    0.00000     31.69900000     21.22800000      0.00000000   0   0   0
   318   1   2    0.00000     30.99000000     22.45600000      0.00000000   0   0   0
   319   1   2    0.00000     33.11600000     21.22800000      0.00000000   0   0   0
   320   1   2    0.00009     33.82600000     22.45600000      0.00000000   0   0   0
   321   1   2    0.01454     35.95300000     21.22800000      0.00000000   0   0   0
   322   1   2    0.00245     35.24400000     22.45600000      0.00000000   0   0   0
   323   1   2    0.06941     37.37100000     21.22800000      0.00000000   0   0   0
   324   1   1   -0.08650     38.07900000     22.45600000      0.00000000   0   0   0
   325   1   2    0.06941      1.92100000     23.68400000      0.00000000   0   0   0
   326   1   1   -0.08650      1.21200000     24.91200000      0.00000000   0   0   0
   327   1   2    0.01454      3.33800000     23.68400000      0.00000000   0   0   0
   328   1   2    0.00245      4.04700000     24.91200000      0.00000000   0   0   0
   329   1   2    0.00000      6.17500000     23.68400000      0.00000000   0   0   0
   330   1   2    0.00009      5.46600000     24.91200000      0.00000000   0   0   0
   331   1   2    0.00000      7.59200000     23.68400000      0.00000000   0   0   0
   332   1   2    0.00000      8.30200000     24.91200000      0.00000000   0   0   0
   333   1   2    0.00000     10.42900000     23.68400000      0.00000000   0   0   0
   334   1   2    0.00000      9.72000000     24.91200000      0.00000000   0   0   0
   335   1   2    0.00000     11.84700000     23.68400000      0.00000000   0   0   0
   336   1   2    0.00000     12.55600000     24.91200000      0.00000000   0   0   0
   337   1   2    0.00000     14.68300000     23.68400000      0.00000000   0   0   0
   338   1   2    0.00000     13.97400000     24.91200000      0.00000000   0   0   0
   339   1   2    0.00000     16.10100000     23.68400000      0.00000000   0   0   0
   340   1   2    0.00000     16.81000000     24.91200000      0.00000000   0   0   0
   341   1   2    0.00000     18.93700000     23.68400000      0.00000000   0   0   0
   342   1   2    0.00000     18.22700000     24.91200000      0.00000000   0   0   0
   343   1   2    0.00000     20.35500000     23.68400000      0.00000000   0   0   0