LAMMPS data file via write_data, version 2 Aug 2023, timestep = 0, units = real

2700 atoms
1 atom types
3885 bonds
1 bond types
7450 angles
1 angle types
14355 dihedrals
1 dihedral types
2380 impropers
1 improper types

-20 20 xlo xhi
-20 20 ylo yhi
0 100 zlo zhi

Masses

1 12.0107

PairIJ Coeffs # lj/cut

1 1 0.066 3.4 14

Bond Coeffs # harmonic

1 469 1.4

Angle Coeffs # harmonic

1 63 120

Dihedral Coeffs # opls

1 0 7.25 0 0

Improper Coeffs # harmonic

1 5 180

Atoms # full

1 1 1 0 -18.0795 -18.420361 0 0 0 0
2 2 1 0 -18.7885 -17.192337000000002 0 0 0 0
3 3 1 0 -16.6615 -18.420361 0 0 0 0
4 4 1 0 -15.9525 -17.192337000000002 0 0 0 0
5 5 1 0 -13.8255 -18.420361 0 0 0 0
6 6 1 0 -14.5345 -17.192337000000002 0 0 0 0
7 7 1 0 -12.4075 -18.420361 0 0 0 0
37 37 1 0 -18.0795 -15.964313 0 0 0 0
38 38 1 0 -18.7885 -14.736289 0 0 0 0
39 39 1 0 -16.6615 -15.964313 0 0 0 0
40 40 1 0 -15.9525 -14.736289 0 0 0 0
41 41 1 0 -13.8255 -15.964313 0 0 0 0
42 42 1 0 -14.5345 -14.736289 0 0 0 0
43 43 1 0 -12.4075 -15.964313 0 0 0 0
73 73 1 0 -18.0795 -13.508265 0 0 0 0
74 74 1 0 -18.7885 -12.280241 0 0 0 0
75 75 1 0 -16.6615 -13.508265 0 0 0 0
76 76 1 0 -15.9525 -12.280241 0 0 0 0
77 77 1 0 -13.8255 -13.508265 0 0 0 0
78 78 1 0 -14.5345 -12.280241 0 0 0 0
79 79 1 0 -12.4075 -13.508265 0 0 0 0
541 541 1 0 -17.3705 -17.192337000000002 3.3500000000000014 0 0 0
542 542 1 0 -18.0795 -15.964313 3.3500000000000014 0 0 0
543 543 1 0 -15.9525 -17.192337000000002 3.3500000000000014 0 0 0
544 544 1 0 -15.243500000000001 -15.964313 3.3500000000000014 0 0 0
545 545 1 0 -13.1165 -17.192337000000002 3.3500000000000014 0 0 0
546 546 1 0 -13.8255 -15.964313 3.3500000000000014 0 0 0
577 577 1 0 -17.3705 -14.736289 3.3500000000000014 0 0 0
578 578 1 0 -18.0795 -13.508265 3.3500000000000014 0 0 0
579 579 1 0 -15.9525 -14.736289 3.3500000000000014 0 0 0
580 580 1 0 -15.243500000000001 -13.508265 3.3500000000000014 0 0 0
581 581 1 0 -13.1165 -14.736289 3.3500000000000014 0 0 0
582 582 1 0 -13.8255 -13.508265 3.3500000000000014 0 0 0
613 613 1 0 -17.3705 -12.280241 3.3500000000000014 0 0 0
615 615 1 0 -15.9525 -12.280241 3.3500000000000014 0 0 0
617 617 1 0 -13.1165 -12.280241 3.3500000000000014 0 0 0
1081 1081 1 0 -18.0795 -18.420361 6.700000000000003 0 0 0
1082 1082 1 0 -18.7885 -17.192337000000002 6.700000000000003 0 0 0
1083 1083 1 0 -16.6615 -18.420361 6.700000000000003 0 0 0
1084 1084 1 0 -15.9525 -17.192337000000002 6.700000000000003 0 0 0
1085 1085 1 0 -13.8255 -18.420361 6.700000000000003 0 0 0
1086 1086 1 0 -14.5345 -17.192337000000002 6.700000000000003 0 0 0
1087 1087 1 0 -12.4075 -18.420361 6.700000000000003 0 0 0
1117 1117 1 0 -18.0795 -15.964313 6.700000000000003 0 0 0
1118 1118 1 0 -18.7885 -14.736289 6.700000000000003 0 0 0
1119 1119 1 0 -16.6615 -15.964313 6.700000000000003 0 0 0
1120 1120 1 0 -15.9525 -14.736289 6.700000000000003 0 0 0
1121 1121 1 0 -13.8255 -15.964313 6.700000000000003 0 0 0
1122 1122 1 0 -14.5345 -14.736289 6.700000000000003 0 0 0
1123 1123 1 0 -12.4075 -15.964313 6.700000000000003 0 0 0
1153 1153 1 0 -18.0795 -13.508265 6.700000000000003 0 0 0
1154 1154 1 0 -18.7885 -12.280241 6.700000000000003 0 0 0
1155 1155 1 0 -16.6615 -13.508265 6.700000000000003 0 0 0
1156 1156 1 0 -15.9525 -12.280241 6.700000000000003 0 0 0
1157 1157 1 0 -13.8255 -13.508265 6.700000000000003 0 0 0
1158 1158 1 0 -14.5345 -12.280241 6.700000000000003 0 0 0
1159 1159 1 0 -12.4075 -13.508265 6.700000000000003 0 0 0
8 8 1 0 -11.6985 -17.192337000000002 0 0 0 0
9 9 1 0 -9.5715 -18.420361 0 0 0 0
10 10 1 0 -10.2805 -17.192337000000002 0 0 0 0
11 11 1 0 -8.153499999999998 -18.420361 0 0 0 0
12 12 1 0 -7.444499999999998 -17.192337000000002 0 0 0 0
13 13 1 0 -5.317499999999997 -18.420361 0 0 0 0
14 14 1 0 -6.026499999999997 -17.192337000000002 0 0 0 0
44 44 1 0 -11.6985 -14.736289 0 0 0 0
45 45 1 0 -9.5715 -15.964313 0 0 0 0
46 46 1 0 -10.2805 -14.736289 0 0 0 0
47 47 1 0 -8.153499999999998 -15.964313 0 0 0 0
48 48 1 0 -7.444499999999998 -14.736289 0 0 0 0
49 49 1 0 -5.317499999999997 -15.964313 0 0 0 0
50 50 1 0 -6.026499999999997 -14.736289 0 0 0 0
80 80 1 0 -11.6985 -12.280241 0 0 0 0
81 81 1 0 -9.5715 -13.508265 0 0 0 0
82 82 1 0 -10.2805 -12.280241 0 0 0 0
83 83 1 0 -8.153499999999998 -13.508265 0 0 0 0
84 84 1 0 -7.444499999999998 -12.280241 0 0 0 0
85 85 1 0 -5.317499999999997 -13.508265 0 0 0 0
86 86 1 0 -6.026499999999997 -12.280241 0 0 0 0
547 547 1 0 -11.6985 -17.192337000000002 3.3500000000000014 0 0 0
548 548 1 0 -10.9895 -15.964313 3.3500000000000014 0 0 0
549 549 1 0 -8.862499999999997 -17.192337000000002 3.3500000000000014 0 0 0
550 550 1 0 -9.5715 -15.964313 3.3500000000000014 0 0 0
551 551 1 0 -7.444499999999998 -17.192337000000002 3.3500000000000014 0 0 0
552 552 1 0 -6.735499999999998 -15.964313 3.3500000000000014 0 0 0
553 553 1 0 -4.608499999999998 -17.192337000000002 3.3500000000000014 0 0 0
554 554 1 0 -5.317499999999997 -15.964313 3.3500000000000014 0 0 0
583 583 1 0 -11.6985 -14.736289 3.3500000000000014 0 0 0
584 584 1 0 -10.9895 -13.508265 3.3500000000000014 0 0 0
585 585 1 0 -8.862499999999997 -14.736289 3.3500000000000014 0 0 0
586 586 1 0 -9.5715 -13.508265 3.3500000000000014 0 0 0
587 587 1 0 -7.444499999999998 -14.736289 3.3500000000000014 0 0 0
588 588 1 0 -6.735499999999998 -13.508265 3.3500000000000014 0 0 0
589 589 1 0 -4.608499999999998 -14.736289 3.3500000000000014 0 0 0
590 590 1 0 -5.317499999999997 -13.508265 3.3500000000000014 0 0 0
619 619 1 0 -11.6985 -12.280241 3.3500000000000014 0 0 0
621 621 1 0 -8.862499999999997 -12.280241 3.3500000000000014 0 0 0
623 623 1 0 -7.444499999999998 -12.280241 3.3500000000000014 0 0 0
625 625 1 0 -4.608499999999998 -12.280241 3.3500000000000014 0 0 0
1088 1088 1 0 -11.6985 -17.192337000000002 6.700000000000003 0 0 0
1089 1089 1 0 -9.5715 -18.420361 6.700000000000003 0 0 0
1090 1090 1 0 -10.2805 -17.192337000000002 6.700000000000003 0 0 0
1091 1091 1 0 -8.153499999999998 -18.420361 6.700000000000003 0 0 0
1092 1092 1 0 -7.444499999999998 -17.192337000000002 6.700000000000003 0 0 0
1093 1093 1 0 -5.317499999999997 -18.420361 6.700000000000003 0 0 0
1094 1094 1 0 -6.026499999999997 -17.192337000000002 6.700000000000003 0 0 0
1124 1124 1 0 -11.6985 -14.736289 6.700000000000003 0 0 0
1125 1125 1 0 -9.5715 -15.964313 6.700000000000003 0 0 0
1126 1126 1 0 -10.2805 -14.736289 6.700000000000003 0 0 0
1127 1127 1 0 -8.153499999999998 -15.964313 6.700000000000003 0 0 0
1128 1128 1 0 -7.444499999999998 -14.736289 6.700000000000003 0 0 0
1129 1129 1 0 -5.317499999999997 -15.964313 6.700000000000003 0 0 0
1130 1130 1 0 -6.026499999999997 -14.736289 6.700000000000003 0 0 0
1160 1160 1 0 -11.6985 -12.280241 6.700000000000003 0 0 0
1161 1161 1 0 -9.5715 -13.508265 6.700000000000003 0 0 0
1162 1162 1 0 -10.2805 -12.280241 6.700000000000003 0 0 0
1163 1163 1 0 -8.153499999999998 -13.508265 6.700000000000003 0 0 0
1164 1164 1 0 -7.444499999999998 -12.280241 6.700000000000003 0 0 0
1165 1165 1 0 -5.317499999999997 -13.508265 6.700000000000003 0 0 0
1166 1166 1 0 -6.026499999999997 -12.280241 6.700000000000003 0 0 0
15 15 1 0 -3.899499999999996 -18.420361 0 0 0 0
16 16 1 0 -3.1905 -17.192337000000002 0 0 0 0
17 17 1 0 -1.0634990000000002 -18.420361 0 0 0 0
18 18 1 0 -1.7725009999999983 -17.192337000000002 0 0 0 0
19 19 1 0 0.35450000000000514 -18.420361 0 0 0 0
20 20 1 0 1.0635000000000048 -17.192337000000002 0 0 0 0
21 21 1 0 3.1905000000000037 -18.420361 0 0 0 0
22 22 1 0 2.4815010000000015 -17.192337000000002 0 0 0 0
51 51 1 0 -3.899499999999996 -15.964313 0 0 0 0
52 52 1 0 -3.1905 -14.736289 0 0 0 0
53 53 1 0 -1.0634990000000002 -15.964313 0 0 0 0
54 54 1 0 -1.7725009999999983 -14.736289 0 0 0 0
55 55 1 0 0.35450000000000514 -15.964313 0 0 0 0
56 56 1 0 1.0635000000000048 -14.736289 0 0 0 0
57 57 1 0 3.1905000000000037 -15.964313 0 0 0 0
58 58 1 0 2.4815010000000015 -14.736289 0 0 0 0
87 87 1 0 -3.899499999999996 -13.508265 0 0 0 0
88 88 1 0 -3.1905 -12.280241 0 0 0 0
89 89 1 0 -1.0634990000000002 -13.508265 0 0 0 0
90 90 1 0 -1.7725009999999983 -12.280241 0 0 0 0
91 91 1 0 0.35450000000000514 -13.508265 0 0 0 0
92 92 1 0 1.0635000000000048 -12.280241 0 0 0 0
93 93 1 0 3.1905000000000037 -13.508265 0 0 0 0
94 94 1 0 2.4815010000000015 -12.280241 0 0 0 0
555 555 1 0 -3.1905 -17.192337000000002 3.3500000000000014 0 0 0
556 556 1 0 -2.481499999999997 -15.964313 3.3500000000000014 0 0 0
557 557 1 0 -0.35449999999999804 -17.192337000000002 3.3500000000000014 0 0 0
558 558 1 0 -1.0634990000000002 -15.964313 3.3500000000000014 0 0 0
559 559 1 0 1.0635000000000048 -17.192337000000002 3.3500000000000014 0 0 0
560 560 1 0 1.7724989999999998 -15.964313 3.3500000000000014 0 0 0
561 561 1 0 3.8995000000000033 -17.192337000000002 3.3500000000000014 0 0 0
562 562 1 0 3.1905000000000037 -15.964313 3.3500000000000014 0 0 0
591 591 1 0 -3.1905 -14.736289 3.3500000000000014 0 0 0
592 592 1 0 -2.481499999999997 -13.508265 3.3500000000000014 0 0 0
593 593 1 0 -0.35449999999999804 -14.736289 3.3500000000000014 0 0 0
594 594 1 0 -1.0634990000000002 -13.508265 3.3500000000000014 0 0 0
595 595 1 0 1.0635000000000048 -14.736289 3.3500000000000014 0 0 0
596 596 1 0 1.7724989999999998 -13.508265 3.3500000000000014 0 0 0
597 597 1 0 3.8995000000000033 -14.736289 3.3500000000000014 0 0 0
598 598 1 0 3.1905000000000037 -13.508265 3.3500000000000014 0 0 0
627 627 1 0 -3.1905 -12.280241 3.3500000000000014 0 0 0
629 629 1 0 -0.35449999999999804 -12.280241 3.3500000000000014 0 0 0
631 631 1 0 1.0635000000000048 -12.280241 3.3500000000000014 0 0 0
633 633 1 0 3.8995000000000033 -12.280241 3.3500000000000014 0 0 0
1095 1095 1 0 -3.899499999999996 -18.420361 6.700000000000003 0 0 0
1096 1096 1 0 -3.1905 -17.192337000000002 6.700000000000003 0 0 0
1097 1097 1 0 -1.0634990000000002 -18.420361 6.700000000000003 0 0 0
1098 1098 1 0 -1.7725009999999983 -17.192337000000002 6.700000000000003 0 0 0
1099 1099 1 0 0.35450000000000514 -18.420361 6.700000000000003 0 0 0
1100 1100 1 0 1.0635000000000048 -17.192337000000002 6.700000000000003 0 0 0
1101 1101 1 0 3.1905000000000037 -18.420361 6.700000000000003 0 0 0
1102 1102 1 0 2.4815010000000015 -17.192337000000002 6.700000000000003 0 0 0
1131 1131 1 0 -3.899499999999996 -15.964313 6.700000000000003 0 0 0
1132 1132 1 0 -3.1905 -14.736289 6.700000000000003 0 0 0
1133 1133 1 0 -1.0634990000000002 -15.964313 6.700000000000003 0 0 0
1134 1134 1 0 -1.7725009999999983 -14.736289 6.700000000000003 0 0 0
1135 1135 1 0 0.35450000000000514 -15.964313 6.700000000000003 0 0 0
1136 1136 1 0 1.0635000000000048 -14.736289 6.700000000000003 0 0 0
1137 1137 1 0 3.1905000000000037 -15.964313 6.700000000000003 0 0 0
1138 1138 1 0 2.4815010000000015 -14.736289 6.700000000000003 0 0 0
1167 1167 1 0 -3.899499999999996 -13.508265 6.700000000000003 0 0 0
1168 1168 1 0 -3.1905 -12.280241 6.700000000000003 0 0 0
1169 1169 1 0 -1.0634990000000002 -13.508265 6.700000000000003 0 0 0
1170 1170 1 0 -1.7725009999999983 -12.280241 6.700000000000003 0 0 0
1171 1171 1 0 0.35450000000000514 -13.508265 6.700000000000003 0 0 0
1172 1172 1 0 1.0635000000000048 -12.280241 6.700000000000003 0 0 0
1173 1173 1 0 3.1905000000000037 -13.508265 6.700000000000003 0 0 0
1174 1174 1 0 2.4815010000000015 -12.280241 6.700000000000003 0 0 0
23 23 1 0 4.608500000000003 -18.420361 0 0 0 0
24 24 1 0 5.317499000000005 -17.192337000000002 0 0 0 0
25 25 1 0 7.444500000000005 -18.420361 0 0 0 0
26 26 1 0 6.735500999999999 -17.192337000000002 0 0 0 0
27 27 1 0 8.862499 -18.420361 0 0 0 0
28 28 1 0 9.571499000000003 -17.192337000000002 0 0 0 0
29 29 1 0 11.698500000000003 -18.420361 0 0 0 0
30 30 1 0 10.989500000000003 -17.192337000000002 0 0 0 0
59 59 1 0 4.608500000000003 -15.964313 0 0 0 0
60 60 1 0 5.317499000000005 -14.736289 0 0 0 0
61 61 1 0 7.444500000000005 -15.964313 0 0 0 0
62 62 1 0 6.735500999999999 -14.736289 0 0 0 0
63 63 1 0 8.862499 -15.964313 0 0 0 0
64 64 1 0 9.571499000000003 -14.736289 0 0 0 0
65 65 1 0 11.698500000000003 -15.964313 0 0 0 0
66 66 1 0 10.989500000000003 -14.736289 0 0 0 0
95 95 1 0 4.608500000000003 -13.508265 0 0 0 0
96 96 1 0 5.317499000000005 -12.280241 0 0 0 0
97 97 1 0 7.444500000000005 -13.508265 0 0 0 0
98 98 1 0 6.735500999999999 -12.280241 0 0 0 0
99 99 1 0 8.862499 -13.508265 0 0 0 0
100 100 1 0 9.571499000000003 -12.280241 0 0 0 0
101 101 1 0 11.698500000000003 -13.508265 0 0 0 0
102 102 1 0 10.989500000000003 -12.280241 0 0 0 0
563 563 1 0 5.317499000000005 -17.192337000000002 3.3500000000000014 0 0 0
564 564 1 0 6.026501 -15.964313 3.3500000000000014 0 0 0
565 565 1 0 8.153500000000005 -17.192337000000002 3.3500000000000014 0 0 0
566 566 1 0 7.444500000000005 -15.964313 3.3500000000000014 0 0 0
567 567 1 0 9.571499000000003 -17.192337000000002 3.3500000000000014 0 0 0
568 568 1 0 10.280501000000001 -15.964313 3.3500000000000014 0 0 0
570 570 1 0 11.698500000000003 -15.964313 3.3500000000000014 0 0 0
599 599 1 0 5.317499000000005 -14.736289 3.3500000000000014 0 0 0
600 600 1 0 6.026501 -13.508265 3.3500000000000014 0 0 0
601 601 1 0 8.153500000000005 -14.736289 3.3500000000000014 0 0 0
602 602 1 0 7.444500000000005 -13.508265 3.3500000000000014 0 0 0
603 603 1 0 9.571499000000003 -14.736289 3.3500000000000014 0 0 0
604 604 1 0 10.280501000000001 -13.508265 3.3500000000000014 0 0 0
606 606 1 0 11.698500000000003 -13.508265 3.3500000000000014 0 0 0
635 635 1 0 5.317499000000005 -12.280241 3.3500000000000014 0 0 0
637 637 1 0 8.153500000000005 -12.280241 3.3500000000000014 0 0 0
639 639 1 0 9.571499000000003 -12.280241 3.3500000000000014 0 0 0
1103 1103 1 0 4.608500000000003 -18.420361 6.700000000000003 0 0 0
1104 1104 1 0 5.317499000000005 -17.192337000000002 6.700000000000003 0 0 0
1105 1105 1 0 7.444500000000005 -18.420361 6.700000000000003 0 0 0
1106 1106 1 0 6.735500999999999 -17.192337000000002 6.700000000000003 0 0 0
1107 1107 1 0 8.862499 -18.420361 6.700000000000003 0 0 0
1108 1108 1 0 9.571499000000003 -17.192337000000002 6.700000000000003 0 0 0
1109 1109 1 0 11.698500000000003 -18.420361 6.700000000000003 0 0 0
1110 1110 1 0 10.989500000000003 -17.192337000000002 6.700000000000003 0 0 0
1139 1139 1 0 4.608500000000003 -15.964313 6.700000000000003 0 0 0
1140 1140 1 0 5.317499000000005 -14.736289 6.700000000000003 0 0 0
1141 1141 1 0 7.444500000000005 -15.964313 6.700000000000003 0 0 0
1142 1142 1 0 6.735500999999999 -14.736289 6.700000000000003 0 0 0
1143 1143 1 0 8.862499 -15.964313 6.700000000000003 0 0 0
1144 1144 1 0 9.571499000000003 -14.736289 6.700000000000003 0 0 0
1145 1145 1 0 11.698500000000003 -15.964313 6.700000000000003 0 0 0
1146 1146 1 0 10.989500000000003 -14.736289 6.700000000000003 0 0 0
1175 1175 1 0 4.608500000000003 -13.508265 6.700000000000003 0 0 0
1176 1176 1 0 5.317499000000005 -12.280241 6.700000000000003 0 0 0
1177 1177 1 0 7.444500000000005 -13.508265 6.700000000000003 0 0 0
1178 1178 1 0 6.735500999999999 -12.280241 6.700000000000003 0 0 0
1179 1179 1 0 8.862499 -13.508265 6.700000000000003 0 0 0
1180 1180 1 0 9.571499000000003 -12.280241 6.700000000000003 0 0 0
1181 1181 1 0 11.698500000000003 -13.508265 6.700000000000003 0 0 0
1182 1182 1 0 10.989500000000003 -12.280241 6.700000000000003 0 0 0
31 31 1 0 13.116498999999997 -18.420361 0 0 0 0
32 32 1 0 13.825500999999996 -17.192337000000002 0 0 0 0
33 33 1 0 15.952500999999998 -18.420361 0 0 0 0
34 34 1 0 15.243502 -17.192337000000002 0 0 0 0
35 35 1 0 17.370500999999997 -18.420361 0 0 0 0
36 36 1 0 18.079499999999996 -17.192337000000002 0 0 0 0
67 67 1 0 13.116498999999997 -15.964313 0 0 0 0
68 68 1 0 13.825500999999996 -14.736289 0 0 0 0
69 69 1 0 15.952500999999998 -15.964313 0 0 0 0
70 70 1 0 15.243502 -14.736289 0 0 0 0
71 71 1 0 17.370500999999997 -15.964313 0 0 0 0
72 72 1 0 18.079499999999996 -14.736289 0 0 0 0
103 103 1 0 13.116498999999997 -13.508265 0 0 0 0
104 104 1 0 13.825500999999996 -12.280241 0 0 0 0
105 105 1 0 15.952500999999998 -13.508265 0 0 0 0
106 106 1 0 15.243502 -12.280241 0 0 0 0
107 107 1 0 17.370500999999997 -13.508265 0 0 0 0
108 108 1 0 18.079499999999996 -12.280241 0 0 0 0
569 569 1 0 12.407499999999999 -17.192337000000002 3.3500000000000014 0 0 0
571 571 1 0 13.825500999999996 -17.192337000000002 3.3500000000000014 0 0 0
572 572 1 0 14.534498 -15.964313 3.3500000000000014 0 0 0
573 573 1 0 16.661500999999994 -17.192337000000002 3.3500000000000014 0 0 0
574 574 1 0 15.952500999999998 -15.964313 3.3500000000000014 0 0 0
575 575 1 0 18.079499999999996 -17.192337000000002 3.3500000000000014 0 0 0
576 576 1 0 18.7885 -15.964313 3.3500000000000014 0 0 0
605 605 1 0 12.407499999999999 -14.736289 3.3500000000000014 0 0 0
607 607 1 0 13.825500999999996 -14.736289 3.3500000000000014 0 0 0
608 608 1 0 14.534498 -13.508265 3.3500000000000014 0 0 0
609 609 1 0 16.661500999999994 -14.736289 3.3500000000000014 0 0 0
610 610 1 0 15.952500999999998 -13.508265 3.3500000000000014 0 0 0
611 611 1 0 18.079499999999996 -14.736289 3.3500000000000014 0 0 0
612 612 1 0 18.7885 -13.508265 3.3500000000000014 0 0 0
641 641 1 0 12.407499999999999 -12.280241 3.3500000000000014 0 0 0
643 643 1 0 13.825500999999996 -12.280241 3.3500000000000014 0 0 0
645 645 1 0 16.661500999999994 -12.280241 3.3500000000000014 0 0 0
647 647 1 0 18.079499999999996 -12.280241 3.3500000000000014 0 0 0
1111 1111 1 0 13.116498999999997 -18.420361 6.700000000000003 0 0 0
1112 1112 1 0 13.825500999999996 -17.192337000000002 6.700000000000003 0 0 0
1113 1113 1 0 15.952500999999998 -18.420361 6.700000000000003 0 0 0
1114 1114 1 0 15.243502 -17.192337000000002 6.700000000000003 0 0 0
1115 1115 1 0 17.370500999999997 -18.420361 6.700000000000003 0 0 0
1116 1116 1 0 18.079499999999996 -17.192337000000002 6.700000000000003 0 0 0
1147 1147 1 0 13.116498999999997 -15.964313 6.700000000000003 0 0 0
1148 1148 1 0 13.825500999999996 -14.736289 6.700000000000003 0 0 0
1149 1149 1 0 15.952500999999998 -15.964313 6.700000000000003 0 0 0
1150 1150 1 0 15.243502 -14.736289 6.700000000000003 0 0 0
1151 1151 1 0 17.370500999999997 -15.964313 6.700000000000003 0 0 0
1152 1152 1 0 18.079499999999996 -14.736289 6.700000000000003 0 0 0
1183 1183 1 0 13.116498999999997 -13.508265 6.700000000000003 0 0 0
1184 1184 1 0 13.825500999999996 -12.280241 6.700000000000003 0 0 0
1185 1185 1 0 15.952500999999998 -13.508265 6.700000000000003 0 0 0
1186 1186 1 0 15.243502 -12.280241 6.700000000000003 0 0 0
1187 1187 1 0 17.370500999999997 -13.508265 6.700000000000003 0 0 0
1188 1188 1 0 18.079499999999996 -12.280241 6.700000000000003 0 0 0
109 109 1 0 -18.0795 -11.052216999999999 0 0 0 0
110 110 1 0 -18.7885 -9.824192 0 0 0 0
111 111 1 0 -16.6615 -11.052216999999999 0 0 0 0
112 112 1 0 -15.9525 -9.824192 0 0 0 0
113 113 1 0 -13.8255 -11.052216999999999 0 0 0 0
114 114 1 0 -14.5345 -9.824192 0 0 0 0
115 115 1 0 -12.4075 -11.052216999999999 0 0 0 0
145 145 1 0 -18.0795 -8.596169 0 0 0 0
146 146 1 0 -18.7885 -7.368143999999999 0 0 0 0
147 147 1 0 -16.6615 -8.596169 0 0 0 0
148 148 1 0 -15.9525 -7.368143999999999 0 0 0 0
149 149 1 0 -13.8255 -8.596169 0 0 0 0
150 150 1 0 -14.5345 -7.368143999999999 0 0 0 0
151 151 1 0 -12.4075 -8.596169 0 0 0 0
181 181 1 0 -18.0795 -6.140121000000001 0 0 0 0
182 182 1 0 -18.7885 -4.912095999999998 0 0 0 0
183 183 1 0 -16.6615 -6.140121000000001 0 0 0 0
184 184 1 0 -15.9525 -4.912095999999998 0 0 0 0
185 185 1 0 -13.8255 -6.140121000000001 0 0 0 0
186 186 1 0 -14.5345 -4.912095999999998 0 0 0 0
187 187 1 0 -12.4075 -6.140121000000001 0 0 0 0
614 614 1 0 -18.0795 -11.052216999999999 3.3500000000000014 0 0 0
616 616 1 0 -15.243500000000001 -11.052216999999999 3.3500000000000014 0 0 0
618 618 1 0 -13.8255 -11.052216999999999 3.3500000000000014 0 0 0
649 649 1 0 -17.3705 -9.824192 3.3500000000000014 0 0 0
650 650 1 0 -18.0795 -8.596169 3.3500000000000014 0 0 0
651 651 1 0 -15.9525 -9.824192 3.3500000000000014 0 0 0
652 652 1 0 -15.243500000000001 -8.596169 3.3500000000000014 0 0 0
653 653 1 0 -13.1165 -9.824192 3.3500000000000014 0 0 0
654 654 1 0 -13.8255 -8.596169 3.3500000000000014 0 0 0
685 685 1 0 -17.3705 -7.368143999999999 3.3500000000000014 0 0 0
686 686 1 0 -18.0795 -6.140121000000001 3.3500000000000014 0 0 0
687 687 1 0 -15.9525 -7.368143999999999 3.3500000000000014 0 0 0
688 688 1 0 -15.243500000000001 -6.140121000000001 3.3500000000000014 0 0 0
689 689 1 0 -13.1165 -7.368143999999999 3.3500000000000014 0 0 0
690 690 1 0 -13.8255 -6.140121000000001 3.3500000000000014 0 0 0
721 721 1 0 -17.3705 -4.912095999999998 3.3500000000000014 0 0 0
723 723 1 0 -15.9525 -4.912095999999998 3.3500000000000014 0 0 0
725 725 1 0 -13.1165 -4.912095999999998 3.3500000000000014 0 0 0
1189 1189 1 0 -18.0795 -11.052216999999999 6.700000000000003 0 0 0
1190 1190 1 0 -18.7885 -9.824192 6.700000000000003 0 0 0
1191 1191 1 0 -16.6615 -11.052216999999999 6.700000000000003 0 0 0
1192 1192 1 0 -15.9525 -9.824192 6.700000000000003 0 0 0
1193 1193 1 0 -13.8255 -11.052216999999999 6.700000000000003 0 0 0
1194 1194 1 0 -14.5345 -9.824192 6.700000000000003 0 0 0
1195 1195 1 0 -12.4075 -11.052216999999999 6.700000000000003 0 0 0
1225 1225 1 0 -18.0795 -8.596169 6.700000000000003 0 0 0
1226 1226 1 0 -18.7885 -7.368143999999999 6.700000000000003 0 0 0
1227 1227 1 0 -16.6615 -8.596169 6.700000000000003 0 0 0
1228 1228 1 0 -15.9525 -7.368143999999999 6.700000000000003 0 0 0
1229 1229 1 0 -13.8255 -8.596169 6.700000000000003 0 0 0
1230 1230 1 0 -14.5345 -7.368143999999999 6.700000000000003 0 0 0
1231 1231 1 0 -12.4075 -8.596169 6.700000000000003 0 0 0
1261 1261 1 0 -18.0795 -6.140121000000001 6.700000000000003 0 0 0
1262 1262 1 0 -18.7885 -4.912095999999998 6.700000000000003 0 0 0
1263 1263 1 0 -16.6615 -6.140121000000001 6.700000000000003 0 0 0
1264 1264 1 0 -15.9525 -4.912095999999998 6.700000000000003 0 0 0
1265 1265 1 0 -13.8255 -6.140121000000001 6.700000000000003 0 0 0
1266 1266 1 0 -14.5345 -4.912095999999998 6.700000000000003 0 0 0
1267 1267 1 0 -12.4075 -6.140121000000001 6.700000000000003 0 0 0
116 116 1 0 -11.6985 -9.824192 0 0 0 0
117 117 1 0 -9.5715 -11.052216999999999 0 0 0 0
118 118 1 0 -10.2805 -9.824192 0 0 0 0
119 119 1 0 -8.153499999999998 -11.052216999999999 0 0 0 0
120 120 1 0 -7.444499999999998 -9.824192 0 0 0 0
121 121 1 0 -5.317499999999997 -11.052216999999999 0 0 0 0
122 122 1 0 -6.026499999999997 -9.824192 0 0 0 0
152 152 1 0 -11.6985 -7.368143999999999 0 0 0 0
153 153 1 0 -9.5715 -8.596169 0 0 0 0
154 154 1 0 -10.2805 -7.368143999999999 0 0 0 0
155 155 1 0 -8.153499999999998 -8.596169 0 0 0 0
156 156 1 0 -7.444499999999998 -7.368143999999999 0 0 0 0
157 157 1 0 -5.317499999999997 -8.596169 0 0 0 0
158 158 1 0 -6.026499999999997 -7.368143999999999 0 0 0 0
188 188 1 0 -11.6985 -4.912095999999998 0 0 0 0
189 189 1 0 -9.5715 -6.140121000000001 0 0 0 0
190 190 1 0 -10.2805 -4.912095999999998 0 0 0 0
191 191 1 0 -8.153499999999998 -6.140121000000001 0 0 0 0
192 192 1 0 -7.444499999999998 -4.912095999999998 0 0 0 0
193 193 1 0 -5.317499999999997 -6.140121000000001 0 0 0 0
194 194 1 0 -6.026499999999997 -4.912095999999998 0 0 0 0
620 620 1 0 -10.9895 -11.052216999999999 3.3500000000000014 0 0 0
622 622 1 0 -9.5715 -11.052216999999999 3.3500000000000014 0 0 0
624 624 1 0 -6.735499999999998 -11.052216999999999 3.3500000000000014 0 0 0
626 626 1 0 -5.317499999999997 -11.052216999999999 3.3500000000000014 0 0 0
655 655 1 0 -11.6985 -9.824192 3.3500000000000014 0 0 0
656 656 1 0 -10.9895 -8.596169 3.3500000000000014 0 0 0
657 657 1 0 -8.862499999999997 -9.824192 3.3500000000000014 0 0 0
658 658 1 0 -9.5715 -8.596169 3.3500000000000014 0 0 0
659 659 1 0 -7.444499999999998 -9.824192 3.3500000000000014 0 0 0
660 660 1 0 -6.735499999999998 -8.596169 3.3500000000000014 0 0 0
661 661 1 0 -4.608499999999998 -9.824192 3.3500000000000014 0 0 0
662 662 1 0 -5.317499999999997 -8.596169 3.3500000000000014 0 0 0
691 691 1 0 -11.6985 -7.368143999999999 3.3500000000000014 0 0 0
692 692 1 0 -10.9895 -6.140121000000001 3.3500000000000014 0 0 0
693 693 1 0 -8.862499999999997 -7.368143999999999 3.3500000000000014 0 0 0
694 694 1 0 -9.5715 -6.140121000000001 3.3500000000000014 0 0 0
695 695 1 0 -7.444499999999998 -7.368143999999999 3.3500000000000014 0 0 0
696 696 1 0 -6.735499999999998 -6.140121000000001 3.3500000000000014 0 0 0
697 697 1 0 -4.608499999999998 -7.368143999999999 3.3500000000000014 0 0 0
698 698 1 0 -5.317499999999997 -6.140121000000001 3.3500000000000014 0 0 0
727 727 1 0 -11.6985 -4.912095999999998 3.3500000000000014 0 0 0
729 729 1 0 -8.862499999999997 -4.912095999999998 3.3500000000000014 0 0 0
731 731 1 0 -7.444499999999998 -4.912095999999998 3.3500000000000014 0 0 0
733 733 1 0 -4.608499999999998 -4.912095999999998 3.3500000000000014 0 0 0
1196 1196 1 0 -11.6985 -9.824192 6.700000000000003 0 0 0
1197 1197 1 0 -9.5715 -11.052216999999999 6.700000000000003 0 0 0
1198 1198 1 0 -10.2805 -9.824192 6.700000000000003 0 0 0
1199 1199 1 0 -8.153499999999998 -11.052216999999999 6.700000000000003 0 0 0
1200 1200 1 0 -7.444499999999998 -9.824192 6.700000000000003 0 0 0
1201 1201 1 0 -5.317499999999997 -11.052216999999999 6.700000000000003 0 0 0
1202 1202 1 0 -6.026499999999997 -9.824192 6.700000000000003 0 0 0
1232 1232 1 0 -11.6985 -7.368143999999999 6.700000000000003 0 0 0
1233 1233 1 0 -9.5715 -8.596169 6.700000000000003 0 0 0
1234 1234 1 0 -10.2805 -7.368143999999999 6.700000000000003 0 0 0
1235 1235 1 0 -8.153499999999998 -8.596169 6.700000000000003 0 0 0
1236 1236 1 0 -7.444499999999998 -7.368143999999999 6.700000000000003 0 0 0
1237 1237 1 0 -5.317499999999997 -8.596169 6.700000000000003 0 0 0
1238 1238 1 0 -6.026499999999997 -7.368143999999999 6.700000000000003 0 0 0
1268 1268 1 0 -11.6985 -4.912095999999998 6.700000000000003 0 0 0
1269 1269 1 0 -9.5715 -6.140121000000001 6.700000000000003 0 0 0
1270 1270 1 0 -10.2805 -4.912095999999998 6.700000000000003 0 0 0
1271 1271 1 0 -8.153499999999998 -6.140121000000001 6.700000000000003 0 0 0
1272 1272 1 0 -7.444499999999998 -4.912095999999998 6.700000000000003 0 0 0
1273 1273 1 0 -5.317499999999997 -6.140121000000001 6.700000000000003 0 0 0
1274 1274 1 0 -6.026499999999997 -4.912095999999998 6.700000000000003 0 0 0
123 123 1 0 -3.899499999999996 -11.052216999999999 0 0 0 0
124 124 1 0 -3.1905 -9.824192 0 0 0 0
125 125 1 0 -1.0634990000000002 -11.052216999999999 0 0 0 0
126 126 1 0 -1.7725009999999983 -9.824192 0 0 0 0
127 127 1 0 0.35450000000000514 -11.052216999999999 0 0 0 0
128 128 1 0 1.0635000000000048 -9.824192 0 0 0 0
129 129 1 0 3.1905000000000037 -11.052216999999999 0 0 0 0
130 130 1 0 2.4815010000000015 -9.824192 0 0 0 0
159 159 1 0 -3.899499999999996 -8.596169 0 0 0 0
160 160 1 0 -3.1905 -7.368143999999999 0 0 0 0
161 161 1 0 -1.0634990000000002 -8.596169 0 0 0 0
162 162 1 0 -1.7725009999999983 -7.368143999999999 0 0 0 0
163 163 1 0 0.35450000000000514 -8.596169 0 0 0 0
164 164 1 0 1.0635000000000048 -7.368143999999999 0 0 0 0
165 165 1 0 3.1905000000000037 -8.596169 0 0 0 0
166 166 1 0 2.4815010000000015 -7.368143999999999 0 0 0 0
195 195 1 0 -3.899499999999996 -6.140121000000001 0 0 0 0
196 196 1 0 -3.1905 -4.912095999999998 0 0 0 0
197 197 1 0 -1.0634990000000002 -6.140121000000001 0 0 0 0
198 198 1 0 -1.7725009999999983 -4.912095999999998 0 0 0 0
199 199 1 0 0.35450000000000514 -6.140121000000001 0 0 0 0
200 200 1 0 1.0635000000000048 -4.912095999999998 0 0 0 0
201 201 1 0 3.1905000000000037 -6.140121000000001 0 0 0 0
202 202 1 0 2.4815010000000015 -4.912095999999998 0 0 0 0
628 628 1 0 -2.481499999999997 -11.052216999999999 3.3500000000000014 0 0 0
630 630 1 0 -1.0634990000000002 -11.052216999999999 3.3500000000000014 0 0 0
632 632 1 0 1.7724989999999998 -11.052216999999999 3.3500000000000014 0 0 0
634 634 1 0 3.1905000000000037 -11.052216999999999 3.3500000000000014 0 0 0
663 663 1 0 -3.1905 -9.824192 3.3500000000000014 0 0 0
664 664 1 0 -2.481499999999997 -8.596169 3.3500000000000014 0 0 0
665 665 1 0 -0.35449999999999804 -9.824192 3.3500000000000014 0 0 0
666 666 1 0 -1.0634990000000002 -8.596169 3.3500000000000014 0 0 0
667 667 1 0 1.0635000000000048 -9.824192 3.3500000000000014 0 0 0
668 668 1 0 1.7724989999999998 -8.596169 3.3500000000000014 0 0 0
669 669 1 0 3.8995000000000033 -9.824192 3.3500000000000014 0 0 0
670 670 1 0 3.1905000000000037 -8.596169 3.3500000000000014 0 0 0
699 699 1 0 -3.1905 -7.368143999999999 3.3500000000000014 0 0 0
700 700 1 0 -2.481499999999997 -6.140121000000001 3.3500000000000014 0 0 0
701 701 1 0 -0.35449999999999804 -7.368143999999999 3.3500000000000014 0 0 0
702 702 1 0 -1.0634990000000002 -6.140121000000001 3.3500000000000014 0 0 0
703 703 1 0 1.0635000000000048 -7.368143999999999 3.3500000000000014 0 0 0
704 704 1 0 1.7724989999999998 -6.140121000000001 3.3500000000000014 0 0 0
705 705 1 0 3.8995000000000033 -7.368143999999999 3.3500000000000014 0 0 0
706 706 1 0 3.1905000000000037 -6.140121000000001 3.3500000000000014 0 0 0
735 735 1 0 -3.1905 -4.912095999999998 3.3500000000000014 0 0 0
737 737 1 0 -0.35449999999999804 -4.912095999999998 3.3500000000000014 0 0 0
739 739 1 0 1.0635000000000048 -4.912095999999998 3.3500000000000014 0 0 0
741 741 1 0 3.8995000000000033 -4.912095999999998 3.3500000000000014 0 0 0
1203 1203 1 0 -3.899499999999996 -11.052216999999999 6.700000000000003 0 0 0
1204 1204 1 0 -3.1905 -9.824192 6.700000000000003 0 0 0
1205 1205 1 0 -1.0634990000000002 -11.052216999999999 6.700000000000003 0 0 0
1206 1206 1 0 -1.7725009999999983 -9.824192 6.700000000000003 0 0 0
1207 1207 1 0 0.35450000000000514 -11.052216999999999 6.700000000000003 0 0 0
1208 1208 1 0 1.0635000000000048 -9.824192 6.700000000000003 0 0 0
1209 1209 1 0 3.1905000000000037 -11.052216999999999 6.700000000000003 0 0 0
1210 1210 1 0 2.4815010000000015 -9.824192 6.700000000000003 0 0 0
1239 1239 1 0 -3.899499999999996 -8.596169 6.700000000000003 0 0 0
1240 1240 1 0 -3.1905 -7.368143999999999 6.700000000000003 0 0 0
1241 1241 1 0 -1.0634990000000002 -8.596169 6.700000000000003 0 0 0
1242 1242 1 0 -1.7725009999999983 -7.368143999999999 6.700000000000003 0 0 0
1243 1243 1 0 0.35450000000000514 -8.596169 6.700000000000003 0 0 0