ITEM: TIMESTEP
0
ITEM: NUMBER OF ATOMS
2700
ITEM: BOX BOUNDS pp pp ff
-2.0000000000000000e+01 2.0000000000000000e+01
-2.0000000000000000e+01 2.0000000000000000e+01
0.0000000000000000e+00 1.0000000000000000e+02
ITEM: ATOMS id element xs ys zs
1 C 0.0480125 0.039491 0
2 C 0.0302875 0.0701916 0
3 C 0.0834625 0.039491 0
4 C 0.101187 0.0701916 0
5 C 0.154363 0.039491 0
6 C 0.136638 0.0701916 0
7 C 0.189812 0.039491 0
37 C 0.0480125 0.100892 0
38 C 0.0302875 0.131593 0
39 C 0.0834625 0.100892 0
40 C 0.101187 0.131593 0
41 C 0.154363 0.100892 0
42 C 0.136638 0.131593 0
43 C 0.189812 0.100892 0
73 C 0.0480125 0.162293 0
74 C 0.0302875 0.192994 0
75 C 0.0834625 0.162293 0
76 C 0.101187 0.192994 0
77 C 0.154363 0.162293 0
78 C 0.136638 0.192994 0
79 C 0.189812 0.162293 0
541 C 0.0657375 0.0701916 0.0335
542 C 0.0480125 0.100892 0.0335
543 C 0.101187 0.0701916 0.0335
544 C 0.118912 0.100892 0.0335
545 C 0.172088 0.0701916 0.0335
546 C 0.154363 0.100892 0.0335
577 C 0.0657375 0.131593 0.0335
578 C 0.0480125 0.162293 0.0335
579 C 0.101187 0.131593 0.0335
580 C 0.118912 0.162293 0.0335
581 C 0.172088 0.131593 0.0335
582 C 0.154363 0.162293 0.0335
613 C 0.0657375 0.192994 0.0335
615 C 0.101187 0.192994 0.0335
617 C 0.172088 0.192994 0.0335
1081 C 0.0480125 0.039491 0.067
1082 C 0.0302875 0.0701916 0.067
1083 C 0.0834625 0.039491 0.067
1084 C 0.101187 0.0701916 0.067
1085 C 0.154363 0.039491 0.067
1086 C 0.136638 0.0701916 0.067
1087 C 0.189812 0.039491 0.067
1117 C 0.0480125 0.100892 0.067
1118 C 0.0302875 0.131593 0.067
1119 C 0.0834625 0.100892 0.067
1120 C 0.101187 0.131593 0.067
1121 C 0.154363 0.100892 0.067
1122 C 0.136638 0.131593 0.067
1123 C 0.189812 0.100892 0.067
1153 C 0.0480125 0.162293 0.067
1154 C 0.0302875 0.192994 0.067
1155 C 0.0834625 0.162293 0.067
1156 C 0.101187 0.192994 0.067
1157 C 0.154363 0.162293 0.067
1158 C 0.136638 0.192994 0.067
1159 C 0.189812 0.162293 0.067
8 C 0.207538 0.0701916 0
9 C 0.260713 0.039491 0
10 C 0.242988 0.0701916 0
11 C 0.296163 0.039491 0
12 C 0.313888 0.0701916 0
13 C 0.367063 0.039491 0
14 C 0.349338 0.0701916 0
44 C 0.207538 0.131593 0
45 C 0.260713 0.100892 0
46 C 0.242988 0.131593 0
47 C 0.296163 0.100892 0
48 C 0.313888 0.131593 0
49 C 0.367063 0.100892 0
50 C 0.349338 0.131593 0
80 C 0.207538 0.192994 0
81 C 0.260713 0.162293 0
82 C 0.242988 0.192994 0
83 C 0.296163 0.162293 0
84 C 0.313888 0.192994 0
85 C 0.367063 0.162293 0
86 C 0.349338 0.192994 0
547 C 0.207538 0.0701916 0.0335
548 C 0.225263 0.100892 0.0335
549 C 0.278438 0.0701916 0.0335
550 C 0.260713 0.100892 0.0335
551 C 0.313888 0.0701916 0.0335
552 C 0.331613 0.100892 0.0335
553 C 0.384788 0.0701916 0.0335
554 C 0.367063 0.100892 0.0335
583 C 0.207538 0.131593 0.0335
584 C 0.225263 0.162293 0.0335
585 C 0.278438 0.131593 0.0335
586 C 0.260713 0.162293 0.0335
587 C 0.313888 0.131593 0.0335
588 C 0.331613 0.162293 0.0335
589 C 0.384788 0.131593 0.0335
590 C 0.367063 0.162293 0.0335
619 C 0.207538 0.192994 0.0335
621 C 0.278438 0.192994 0.0335
623 C 0.313888 0.192994 0.0335
625 C 0.384788 0.192994 0.0335
1088 C 0.207538 0.0701916 0.067
1089 C 0.260713 0.039491 0.067
1090 C 0.242988 0.0701916 0.067
1091 C 0.296163 0.039491 0.067
1092 C 0.313888 0.0701916 0.067
1093 C 0.367063 0.039491 0.067
1094 C 0.349338 0.0701916 0.067
1124 C 0.207538 0.131593 0.067
1125 C 0.260713 0.100892 0.067
1126 C 0.242988 0.131593 0.067
1127 C 0.296163 0.100892 0.067
1128 C 0.313888 0.131593 0.067
1129 C 0.367063 0.100892 0.067
1130 C 0.349338 0.131593 0.067
1160 C 0.207538 0.192994 0.067
1161 C 0.260713 0.162293 0.067
1162 C 0.242988 0.192994 0.067
1163 C 0.296163 0.162293 0.067
1164 C 0.313888 0.192994 0.067
1165 C 0.367063 0.162293 0.067
1166 C 0.349338 0.192994 0.067
15 C 0.402513 0.039491 0
16 C 0.420238 0.0701916 0
17 C 0.473413 0.039491 0
18 C 0.455687 0.0701916 0
19 C 0.508863 0.039491 0
20 C 0.526588 0.0701916 0
21 C 0.579763 0.039491 0
22 C 0.562038 0.0701916 0
51 C 0.402513 0.100892 0
52 C 0.420238 0.131593 0
53 C 0.473413 0.100892 0
54 C 0.455687 0.131593 0
55 C 0.508863 0.100892 0
56 C 0.526588 0.131593 0
57 C 0.579763 0.100892 0
58 C 0.562038 0.131593 0
87 C 0.402513 0.162293 0
88 C 0.420238 0.192994 0
89 C 0.473413 0.162293 0
90 C 0.455687 0.192994 0
91 C 0.508863 0.162293 0
92 C 0.526588 0.192994 0
93 C 0.579763 0.162293 0
94 C 0.562038 0.192994 0
555 C 0.420238 0.0701916 0.0335
556 C 0.437963 0.100892 0.0335
557 C 0.491138 0.0701916 0.0335
558 C 0.473413 0.100892 0.0335
559 C 0.526588 0.0701916 0.0335
560 C 0.544312 0.100892 0.0335
561 C 0.597488 0.0701916 0.0335
562 C 0.579763 0.100892 0.0335
591 C 0.420238 0.131593 0.0335
592 C 0.437963 0.162293 0.0335
593 C 0.491138 0.131593 0.0335
594 C 0.473413 0.162293 0.0335
595 C 0.526588 0.131593 0.0335
596 C 0.544312 0.162293 0.0335
597 C 0.597488 0.131593 0.0335
598 C 0.579763 0.162293 0.0335
627 C 0.420238 0.192994 0.0335
629 C 0.491138 0.192994 0.0335
631 C 0.526588 0.192994 0.0335
633 C 0.597488 0.192994 0.0335
1095 C 0.402513 0.039491 0.067
1096 C 0.420238 0.0701916 0.067
1097 C 0.473413 0.039491 0.067
1098 C 0.455687 0.0701916 0.067
1099 C 0.508863 0.039491 0.067
1100 C 0.526588 0.0701916 0.067
1101 C 0.579763 0.039491 0.067
1102 C 0.562038 0.0701916 0.067
1131 C 0.402513 0.100892 0.067
1132 C 0.420238 0.131593 0.067
1133 C 0.473413 0.100892 0.067
1134 C 0.455687 0.131593 0.067
1135 C 0.508863 0.100892 0.067
1136 C 0.526588 0.131593 0.067
1137 C 0.579763 0.100892 0.067
1138 C 0.562038 0.131593 0.067
1167 C 0.402513 0.162293 0.067
1168 C 0.420238 0.192994 0.067
1169 C 0.473413 0.162293 0.067
1170 C 0.455687 0.192994 0.067
1171 C 0.508863 0.162293 0.067
1172 C 0.526588 0.192994 0.067
1173 C 0.579763 0.162293 0.067
1174 C 0.562038 0.192994 0.067
23 C 0.615213 0.039491 0
24 C 0.632937 0.0701916 0
25 C 0.686113 0.039491 0
26 C 0.668388 0.0701916 0
27 C 0.721562 0.039491 0
28 C 0.739287 0.0701916 0
29 C 0.792463 0.039491 0
30 C 0.774738 0.0701916 0
59 C 0.615213 0.100892 0
60 C 0.632937 0.131593 0
61 C 0.686113 0.100892 0
62 C 0.668388 0.131593 0
63 C 0.721562 0.100892 0
64 C 0.739287 0.131593 0
65 C 0.792463 0.100892 0
66 C 0.774738 0.131593 0
95 C 0.615213 0.162293 0
96 C 0.632937 0.192994 0
97 C 0.686113 0.162293 0
98 C 0.668388 0.192994 0
99 C 0.721562 0.162293 0
100 C 0.739287 0.192994 0
101 C 0.792463 0.162293 0
102 C 0.774738 0.192994 0
563 C 0.632937 0.0701916 0.0335
564 C 0.650663 0.100892 0.0335
565 C 0.703838 0.0701916 0.0335
566 C 0.686113 0.100892 0.0335
567 C 0.739287 0.0701916 0.0335
568 C 0.757013 0.100892 0.0335
570 C 0.792463 0.100892 0.0335
599 C 0.632937 0.131593 0.0335
600 C 0.650663 0.162293 0.0335
601 C 0.703838 0.131593 0.0335
602 C 0.686113 0.162293 0.0335
603 C 0.739287 0.131593 0.0335
604 C 0.757013 0.162293 0.0335
606 C 0.792463 0.162293 0.0335
635 C 0.632937 0.192994 0.0335
637 C 0.703838 0.192994 0.0335
639 C 0.739287 0.192994 0.0335
1103 C 0.615213 0.039491 0.067
1104 C 0.632937 0.0701916 0.067
1105 C 0.686113 0.039491 0.067
1106 C 0.668388 0.0701916 0.067
1107 C 0.721562 0.039491 0.067
1108 C 0.739287 0.0701916 0.067
1109 C 0.792463 0.039491 0.067
1110 C 0.774738 0.0701916 0.067
1139 C 0.615213 0.100892 0.067
1140 C 0.632937 0.131593 0.067
1141 C 0.686113 0.100892 0.067
1142 C 0.668388 0.131593 0.067
1143 C 0.721562 0.100892 0.067
1144 C 0.739287 0.131593 0.067
1145 C 0.792463 0.100892 0.067
1146 C 0.774738 0.131593 0.067
1175 C 0.615213 0.162293 0.067
1176 C 0.632937 0.192994 0.067
1177 C 0.686113 0.162293 0.067
1178 C 0.668388 0.192994 0.067
1179 C 0.721562 0.162293 0.067
1180 C 0.739287 0.192994 0.067
1181 C 0.792463 0.162293 0.067
1182 C 0.774738 0.192994 0.067
31 C 0.827912 0.039491 0
32 C 0.845638 0.0701916 0
33 C 0.898813 0.039491 0
34 C 0.881088 0.0701916 0
35 C 0.934263 0.039491 0
36 C 0.951987 0.0701916 0
67 C 0.827912 0.100892 0
68 C 0.845638 0.131593 0
69 C 0.898813 0.100892 0
70 C 0.881088 0.131593 0
71 C 0.934263 0.100892 0
72 C 0.951987 0.131593 0
103 C 0.827912 0.162293 0
104 C 0.845638 0.192994 0
105 C 0.898813 0.162293 0
106 C 0.881088 0.192994 0
107 C 0.934263 0.162293 0
108 C 0.951987 0.192994 0
569 C 0.810188 0.0701916 0.0335
571 C 0.845638 0.0701916 0.0335
572 C 0.863362 0.100892 0.0335
573 C 0.916538 0.0701916 0.0335
574 C 0.898813 0.100892 0.0335
575 C 0.951987 0.0701916 0.0335
576 C 0.969712 0.100892 0.0335
605 C 0.810188 0.131593 0.0335
607 C 0.845638 0.131593 0.0335
608 C 0.863362 0.162293 0.0335
609 C 0.916538 0.131593 0.0335
610 C 0.898813 0.162293 0.0335
611 C 0.951987 0.131593 0.0335
612 C 0.969712 0.162293 0.0335
641 C 0.810188 0.192994 0.0335
643 C 0.845638 0.192994 0.0335
645 C 0.916538 0.192994 0.0335
647 C 0.951987 0.192994 0.0335
1111 C 0.827912 0.039491 0.067
1112 C 0.845638 0.0701916 0.067
1113 C 0.898813 0.039491 0.067
1114 C 0.881088 0.0701916 0.067
1115 C 0.934263 0.039491 0.067
1116 C 0.951987 0.0701916 0.067
1147 C 0.827912 0.100892 0.067
1148 C 0.845638 0.131593 0.067
1149 C 0.898813 0.100892 0.067
1150 C 0.881088 0.131593 0.067
1151 C 0.934263 0.100892 0.067
1152 C 0.951987 0.131593 0.067
1183 C 0.827912 0.162293 0.067
1184 C 0.845638 0.192994 0.067
1185 C 0.898813 0.162293 0.067
1186 C 0.881088 0.192994 0.067
1187 C 0.934263 0.162293 0.067
1188 C 0.951987 0.192994 0.067
109 C 0.0480125 0.223695 0
110 C 0.0302875 0.254395 0
111 C 0.0834625 0.223695 0
112 C 0.101187 0.254395 0
113 C 0.154363 0.223695 0
114 C 0.136638 0.254395 0
115 C 0.189812 0.223695 0
145 C 0.0480125 0.285096 0
146 C 0.0302875 0.315796 0
147 C 0.0834625 0.285096 0
148 C 0.101187 0.315796 0
149 C 0.154363 0.285096 0
150 C 0.136638 0.315796 0
151 C 0.189812 0.285096 0
181 C 0.0480125 0.346497 0
182 C 0.0302875 0.377198 0
183 C 0.0834625 0.346497 0
184 C 0.101187 0.377198 0
185 C 0.154363 0.346497 0
186 C 0.136638 0.377198 0
187 C 0.189812 0.346497 0
614 C 0.0480125 0.223695 0.0335
616 C 0.118912 0.223695 0.0335
618 C 0.154363 0.223695 0.0335
649 C 0.0657375 0.254395 0.0335
650 C 0.0480125 0.285096 0.0335
651 C 0.101187 0.254395 0.0335
652 C 0.118912 0.285096 0.0335
653 C 0.172088 0.254395 0.0335
654 C 0.154363 0.285096 0.0335
685 C 0.0657375 0.315796 0.0335
686 C 0.0480125 0.346497 0.0335
687 C 0.101187 0.315796 0.0335
688 C 0.118912 0.346497 0.0335
689 C 0.172088 0.315796 0.0335
690 C 0.154363 0.346497 0.0335
721 C 0.0657375 0.377198 0.0335
723 C 0.101187 0.377198 0.0335
725 C 0.172088 0.377198 0.0335
1189 C 0.0480125 0.223695 0.067
1190 C 0.0302875 0.254395 0.067
1191 C 0.0834625 0.223695 0.067
1192 C 0.101187 0.254395 0.067
1193 C 0.154363 0.223695 0.067
1194 C 0.136638 0.254395 0.067
1195 C 0.189812 0.223695 0.067
1225 C 0.0480125 0.285096 0.067
1226 C 0.0302875 0.315796 0.067
1227 C 0.0834625 0.285096 0.067
1228 C 0.101187 0.315796 0.067
1229 C 0.154363 0.285096 0.067
1230 C 0.136638 0.315796 0.067
1231 C 0.189812 0.285096 0.067
1261 C 0.0480125 0.346497 0.067
1262 C 0.0302875 0.377198 0.067
1263 C 0.0834625 0.346497 0.067
1264 C 0.101187 0.377198 0.067
1265 C 0.154363 0.346497 0.067
1266 C 0.136638 0.377198 0.067
1267 C 0.189812 0.346497 0.067
116 C 0.207538 0.254395 0
117 C 0.260713 0.223695 0
118 C 0.242988 0.254395 0
119 C 0.296163 0.223695 0
120 C 0.313888 0.254395 0
121 C 0.367063 0.223695 0
122 C 0.349338 0.254395 0
152 C 0.207538 0.315796 0
153 C 0.260713 0.285096 0
154 C 0.242988 0.315796 0
155 C 0.296163 0.285096 0
156 C 0.313888 0.315796 0
157 C 0.367063 0.285096 0
158 C 0.349338 0.315796 0
188 C 0.207538 0.377198 0
189 C 0.260713 0.346497 0
190 C 0.242988 0.377198 0
191 C 0.296163 0.346497 0
192 C 0.313888 0.377198 0
193 C 0.367063 0.346497 0
194 C 0.349338 0.377198 0
620 C 0.225263 0.223695 0.0335
622 C 0.260713 0.223695 0.0335
624 C 0.331613 0.223695 0.0335
626 C 0.367063 0.223695 0.0335
655 C 0.207538 0.254395 0.0335
656 C 0.225263 0.285096 0.0335
657 C 0.278438 0.254395 0.0335
658 C 0.260713 0.285096 0.0335
659 C 0.313888 0.254395 0.0335
660 C 0.331613 0.285096 0.0335
661 C 0.384788 0.254395 0.0335
662 C 0.367063 0.285096 0.0335
691 C 0.207538 0.315796 0.0335
692 C 0.225263 0.346497 0.0335
693 C 0.278438 0.315796 0.0335
694 C 0.260713 0.346497 0.0335
695 C 0.313888 0.315796 0.0335
696 C 0.331613 0.346497 0.0335
697 C 0.384788 0.315796 0.0335
698 C 0.367063 0.346497 0.0335
727 C 0.207538 0.377198 0.0335
729 C 0.278438 0.377198 0.0335
731 C 0.313888 0.377198 0.0335
733 C 0.384788 0.377198 0.0335
1196 C 0.207538 0.254395 0.067
1197 C 0.260713 0.223695 0.067
1198 C 0.242988 0.254395 0.067
1199 C 0.296163 0.223695 0.067
1200 C 0.313888 0.254395 0.067
1201 C 0.367063 0.223695 0.067
1202 C 0.349338 0.254395 0.067
1232 C 0.207538 0.315796 0.067
1233 C 0.260713 0.285096 0.067
1234 C 0.242988 0.315796 0.067
1235 C 0.296163 0.285096 0.067
1236 C 0.313888 0.315796 0.067
1237 C 0.367063 0.285096 0.067
1238 C 0.349338 0.315796 0.067
1268 C 0.207538 0.377198 0.067
1269 C 0.260713 0.346497 0.067
1270 C 0.242988 0.377198 0.067
1271 C 0.296163 0.346497 0.067
1272 C 0.313888 0.377198 0.067
1273 C 0.367063 0.346497 0.067
1274 C 0.349338 0.377198 0.067
123 C 0.402513 0.223695 0
124 C 0.420238 0.254395 0
125 C 0.473413 0.223695 0
126 C 0.455687 0.254395 0
127 C 0.508863 0.223695 0
128 C 0.526588 0.254395 0
129 C 0.579763 0.223695 0
130 C 0.562038 0.254395 0
159 C 0.402513 0.285096 0
160 C 0.420238 0.315796 0
161 C 0.473413 0.285096 0
162 C 0.455687 0.315796 0
163 C 0.508863 0.285096 0
164 C 0.526588 0.315796 0
165 C 0.579763 0.285096 0
166 C 0.562038 0.315796 0
195 C 0.402513 0.346497 0
196 C 0.420238 0.377198 0
197 C 0.473413 0.346497 0
198 C 0.455687 0.377198 0
199 C 0.508863 0.346497 0
200 C 0.526588 0.377198 0
201 C 0.579763 0.346497 0
202 C 0.562038 0.377198 0
628 C 0.437963 0.223695 0.0335
630 C 0.473413 0.223695 0.0335
632 C 0.544312 0.223695 0.0335
634 C 0.579763 0.223695 0.0335
663 C 0.420238 0.254395 0.0335
664 C 0.437963 0.285096 0.0335
665 C 0.491138 0.254395 0.0335
666 C 0.473413 0.285096 0.0335
667 C 0.526588 0.254395 0.0335
668 C 0.544312 0.285096 0.0335
669 C 0.597488 0.254395 0.0335
670 C 0.579763 0.285096 0.0335
699 C 0.420238 0.315796 0.0335
700 C 0.437963 0.346497 0.0335
701 C 0.491138 0.315796 0.0335
702 C 0.473413 0.346497 0.0335
703 C 0.526588 0.315796 0.0335
704 C 0.544312 0.346497 0.0335
705 C 0.597488 0.315796 0.0335
706 C 0.579763 0.346497 0.0335
735 C 0.420238 0.377198 0.0335
737 C 0.491138 0.377198 0.0335
739 C 0.526588 0.377198 0.0335
741 C 0.597488 0.377198 0.0335
1203 C 0.402513 0.223695 0.067
1204 C 0.420238 0.254395 0.067
1205 C 0.473413 0.223695 0.067
1206 C 0.455687 0.254395 0.067
1207 C 0.508863 0.223695 0.067
1208 C 0.526588 0.254395 0.067
1209 C 0.579763 0.223695 0.067
1210 C 0.562038 0.254395 0.067
1239 C 0.402513 0.285096 0.067
1240 C 0.420238 0.315796 0.067
1241 C 0.473413 0.285096 0.067
1242 C 0.455687 0.315796 0.067
1243 C 0.508863 0.285096 0.067
1244 C 0.526588 0.315796 0.067
1245 C 0.579763 0.285096 0.067
1246 C 0.562038 0.315796 0.067
1275 C 0.402513 0.346497 0.067
1276 C 0.420238 0.377198 0.067
1277 C 0.473413 0.346497 0.067
1278 C 0.455687 0.377198 0.067
1279 C 0.508863 0.346497 0.067
1280 C 0.526588 0.377198 0.067
1281 C 0.579763 0.346497 0.067
1282 C 0.562038 0.377198 0.067
131 C 0.615213 0.223695 0
132 C 0.632937 0.254395 0
133 C 0.686113 0.223695 0
134 C 0.668388 0.254395 0
135 C 0.721562 0.223695 0
136 C 0.739287 0.254395 0
137 C 0.792463 0.223695 0
138 C 0.774738 0.254395 0
167 C 0.615213 0.285096 0
168 C 0.632937 0.315796 0
169 C 0.686113 0.285096 0
170 C 0.668388 0.315796 0
171 C 0.721562 0.285096 0
172 C 0.739287 0.315796 0
173 C 0.792463 0.285096 0
174 C 0.774738 0.315796 0
203 C 0.615213 0.346497 0
204 C 0.632937 0.377198 0
205 C 0.686113 0.346497 0
206 C 0.668388 0.377198 0
207 C 0.721562 0.346497 0
208 C 0.739287 0.377198 0
209 C 0.792463 0.346497 0
210 C 0.774738 0.377198 0
636 C 0.650663 0.223695 0.0335
638 C 0.686113 0.223695 0.0335
640 C 0.757013 0.223695 0.0335
642 C 0.792463 0.223695 0.0335
671 C 0.632937 0.254395 0.0335
672 C 0.650663 0.285096 0.0335
673 C 0.703838 0.254395 0.0335
674 C 0.686113 0.285096 0.0335
675 C 0.739287 0.254395 0.0335
676 C 0.757013 0.285096 0.0335
678 C 0.792463 0.285096 0.0335
707 C 0.632937 0.315796 0.0335
708 C 0.650663 0.346497 0.0335
709 C 0.703838 0.315796 0.0335
710 C 0.686113 0.346497 0.0335
711 C 0.739287 0.315796 0.0335
712 C 0.757013 0.346497 0.0335
714 C 0.792463 0.346497 0.0335
743 C 0.632937 0.377198 0.0335
745 C 0.703838 0.377198 0.0335
747 C 0.739287 0.377198 0.0335
1211 C 0.615213 0.223695 0.067
1212 C 0.632937 0.254395 0.067
1213 C 0.686113 0.223695 0.067
1214 C 0.668388 0.254395 0.067
1215 C 0.721562 0.223695 0.067
1216 C 0.739287 0.254395 0.067
1217 C 0.792463 0.223695 0.067
1218 C 0.774738 0.254395 0.067
1247 C 0.615213 0.285096 0.067
1248 C 0.632937 0.315796 0.067
1249 C 0.686113 0.285096 0.067
1250 C 0.668388 0.315796 0.067
1251 C 0.721562 0.285096 0.067
1252 C 0.739287 0.315796 0.067
1253 C 0.792463 0.285096 0.067
1254 C 0.774738 0.315796 0.067
1283 C 0.615213 0.346497 0.067
1284 C 0.632937 0.377198 0.067
1285 C 0.686113 0.346497 0.067
1286 C 0.668388 0.377198 0.067
1287 C 0.721562 0.346497 0.067
1288 C 0.739287 0.377198 0.067
1289 C 0.792463 0.346497 0.067
1290 C 0.774738 0.377198 0.067
139 C 0.827912 0.223695 0
140 C 0.845638 0.254395 0
141 C 0.898813 0.223695 0
142 C 0.881088 0.254395 0
143 C 0.934263 0.223695 0
144 C 0.951987 0.254395 0
175 C 0.827912 0.285096 0
176 C 0.845638 0.315796 0
177 C 0.898813 0.285096 0
178 C 0.881088 0.315796 0
179 C 0.934263 0.285096 0
180 C 0.951987 0.315796 0
211 C 0.827912 0.346497 0
212 C 0.845638 0.377198 0
213 C 0.898813 0.346497 0
214 C 0.881088 0.377198 0
215 C 0.934263 0.346497 0
216 C 0.951987 0.377198 0
644 C 0.863362 0.223695 0.0335
646 C 0.898813 0.223695 0.0335
648 C 0.969712 0.223695 0.0335
677 C 0.810188 0.254395 0.0335
679 C 0.845638 0.254395 0.0335
680 C 0.863362 0.285096 0.0335
681 C 0.916538 0.254395 0.0335
682 C 0.898813 0.285096 0.0335
683 C 0.951987 0.254395 0.0335
684 C 0.969712 0.285096 0.0335
713 C 0.810188 0.315796 0.0335
715 C 0.845638 0.315796 0.0335
716 C 0.863362 0.346497 0.0335
717 C 0.916538 0.315796 0.0335
718 C 0.898813 0.346497 0.0335
719 C 0.951987 0.315796 0.0335
720 C 0.969712 0.346497 0.0335
749 C 0.810188 0.377198 0.0335
751 C 0.845638 0.377198 0.0335
753 C 0.916538 0.377198 0.0335
755 C 0.951987 0.377198 0.0335
1219 C 0.827912 0.223695 0.067
1220 C 0.845638 0.254395 0.067
1221 C 0.898813 0.223695 0.067
1222 C 0.881088 0.254395 0.067
1223 C 0.934263 0.223695 0.067
1224 C 0.951987 0.254395 0.067
1255 C 0.827912 0.285096 0.067
1256 C 0.845638 0.315796 0.067
1257 C 0.898813 0.285096 0.067
1258 C 0.881088 0.315796 0.067
1259 C 0.934263 0.285096 0.067
1260 C 0.951987 0.315796 0.067
1291 C 0.827912 0.346497 0.067
1292 C 0.845638 0.377198 0.067
1293 C 0.898813 0.346497 0.067
1294 C 0.881088 0.377198 0.067
1295 C 0.934263 0.346497 0.067
1296 C 0.951987 0.377198 0.067
217 C 0.0480125 0.407898 0
218 C 0.0302875 0.438599 0
219 C 0.0834625 0.407898 0
220 C 0.101187 0.438599 0
221 C 0.154363 0.407898 0
222 C 0.136638 0.438599 0
223 C 0.189812 0.407898 0
253 C 0.0480125 0.469299 0
254 C 0.0302875 0.5 0
255 C 0.0834625 0.469299 0
256 C 0.101187 0.5 0
257 C 0.154363 0.469299 0
258 C 0.136638 0.5 0
259 C 0.189812 0.469299 0
289 C 0.0480125 0.530701 0
290 C 0.0302875 0.561401 0
291 C 0.0834625 0.530701 0
292 C 0.101187 0.561401 0
293 C 0.154363 0.530701 0
294 C 0.136638 0.561401 0
295 C 0.189812 0.530701 0
325 C 0.0480125 0.592102 0
327 C 0.0834625 0.592102 0
329 C 0.154363 0.592102 0
331 C 0.189812 0.592102 0
722 C 0.0480125 0.407898 0.0335
724 C 0.118912 0.407898 0.0335
726 C 0.154363 0.407898 0.0335
757 C 0.0657375 0.438599 0.0335
758 C 0.0480125 0.469299 0.0335
759 C 0.101187 0.438599 0.0335
760 C 0.118912 0.469299 0.0335
761 C 0.172088 0.438599 0.0335
762 C 0.154363 0.469299 0.0335
793 C 0.0657375 0.5 0.0335
794 C 0.0480125 0.530701 0.0335
795 C 0.101187 0.5 0.0335
796 C 0.118912 0.530701 0.0335
797 C 0.172088 0.5 0.0335
798 C 0.154363 0.530701 0.0335
829 C 0.0657375 0.561401 0.0335
830 C 0.0480125 0.592102 0.0335
831 C 0.101187 0.561401 0.0335
832 C 0.118912 0.592102 0.0335
833 C 0.172088 0.561401 0.0335
834 C 0.154363 0.592102 0.0335
1297 C 0.0480125 0.407898 0.067
1298 C 0.0302875 0.438599 0.067
1299 C 0.0834625 0.407898 0.067
1300 C 0.101187 0.438599 0.067
1301 C 0.154363 0.407898 0.067
1302 C 0.136638 0.438599 0.067
1303 C 0.189812 0.407898 0.067
1333 C 0.0480125 0.469299 0.067
1334 C 0.0302875 0.5 0.067
1335 C 0.0834625 0.469299 0.067
1336 C 0.101187 0.5 0.067
1337 C 0.154363 0.469299 0.067
1338 C 0.136638 0.5 0.067
1339 C 0.189812 0.469299 0.067
1369 C 0.0480125 0.530701 0.067
1370 C 0.0302875 0.561401 0.067
1371 C 0.0834625 0.530701 0.067
1372 C 0.101187 0.561401 0.067
1373 C 0.154363 0.530701 0.067
1374 C 0.136638 0.561401 0.067
1375 C 0.189812 0.530701 0.067
1405 C 0.0480125 0.592102 0.067
1407 C 0.0834625 0.592102 0.067
1409 C 0.154363 0.592102 0.067
1411 C 0.189812 0.592102 0.067
224 C 0.207538 0.438599 0
225 C 0.260713 0.407898 0
226 C 0.242988 0.438599 0
227 C 0.296163 0.407898 0
228 C 0.313888 0.438599 0
229 C 0.367063 0.407898 0
230 C 0.349338 0.438599 0
260 C 0.207538 0.5 0
261 C 0.260713 0.469299 0
262 C 0.242988 0.5 0
263 C 0.296163 0.469299 0
264 C 0.313888 0.5 0
265 C 0.367063 0.469299 0
266 C 0.349338 0.5 0
296 C 0.207538 0.561401 0
297 C 0.260713 0.530701 0
298 C 0.242988 0.561401 0
299 C 0.296163 0.530701 0
300 C 0.313888 0.561401 0
301 C 0.367063 0.530701 0
302 C 0.349338 0.561401 0
333 C 0.260713 0.592102 0
335 C 0.296163 0.592102 0
337 C 0.367063 0.592102 0
728 C 0.225263 0.407898 0.0335
730 C 0.260713 0.407898 0.0335
732 C 0.331613 0.407898 0.0335
734 C 0.367063 0.407898 0.0335
763 C 0.207538 0.438599 0.0335
764 C 0.225263 0.469299 0.0335
765 C 0.278438 0.438599 0.0335
766 C 0.260713 0.469299 0.0335
767 C 0.313888 0.438599 0.0335
768 C 0.331613 0.469299 0.0335
769 C 0.384788 0.438599 0.0335
770 C 0.367063 0.469299 0.0335
799 C 0.207538 0.5 0.0335
800 C 0.225263 0.530701 0.0335
801 C 0.278438 0.5 0.0335
802 C 0.260713 0.530701 0.0335
803 C 0.313888 0.5 0.0335
804 C 0.331613 0.530701 0.0335
805 C 0.384788 0.5 0.0335
806 C 0.367063 0.530701 0.0335
835 C 0.207538 0.561401 0.0335
836 C 0.225263 0.592102 0.0335
837 C 0.278438 0.561401 0.0335
838 C 0.260713 0.592102 0.0335
839 C 0.313888 0.561401 0.0335
840 C 0.331613 0.592102 0.0335
841 C 0.384788 0.561401 0.0335
842 C 0.367063 0.592102 0.0335
1304 C 0.207538 0.438599 0.067
1305 C 0.260713 0.407898 0.067
1306 C 0.242988 0.438599 0.067
1307 C 0.296163 0.407898 0.067
1308 C 0.313888 0.438599 0.067
1309 C 0.367063 0.407898 0.067
1310 C 0.349338 0.438599 0.067
1340 C 0.207538 0.5 0.067
1341 C 0.260713 0.469299 0.067
1342 C 0.242988 0.5 0.067
1343 C 0.296163 0.469299 0.067
1344 C 0.313888 0.5 0.067
1345 C 0.367063 0.469299 0.067
1346 C 0.349338 0.5 0.067
1376 C 0.207538 0.561401 0.067
1377 C 0.260713 0.530701 0.067
1378 C 0.242988 0.561401 0.067
1379 C 0.296163 0.530701 0.067
1380 C 0.313888 0.561401 0.067
1381 C 0.367063 0.530701 0.067
1382 C 0.349338 0.561401 0.067
1413 C 0.260713 0.592102 0.067
1415 C 0.296163 0.592102 0.067
1417 C 0.367063 0.592102 0.067
231 C 0.402513 0.407898 0
232 C 0.420238 0.438599 0
233 C 0.473413 0.407898 0
234 C 0.455687 0.438599 0
235 C 0.508863 0.407898 0
236 C 0.526588 0.438599 0
237 C 0.579763 0.407898 0
238 C 0.562038 0.438599 0
267 C 0.402513 0.469299 0
268 C 0.420238 0.5 0
269 C 0.473413 0.469299 0
270 C 0.455687 0.5 0
271 C 0.508863 0.469299 0
272 C 0.526588 0.5 0
273 C 0.579763 0.469299 0
274 C 0.562038 0.5 0
303 C 0.402513 0.530701 0
304 C 0.420238 0.561401 0
305 C 0.473413 0.530701 0
306 C 0.455687 0.561401 0
307 C 0.508863 0.530701 0
308 C 0.526588 0.561401 0
309 C 0.579763 0.530701 0
310 C 0.562038 0.561401 0
339 C 0.402513 0.592102 0
341 C 0.473413 0.592102 0
343 C 0.508863 0.592102 0
345 C 0.579763 0.592102 0
736 C 0.437963 0.407898 0.0335
738 C 0.473413 0.407898 0.0335
740 C 0.544312 0.407898 0.0335
742 C 0.579763 0.407898 0.0335
771 C 0.420238 0.438599 0.0335
772 C 0.437963 0.469299 0.0335
773 C 0.491138 0.438599 0.0335
774 C 0.473413 0.469299 0.0335
775 C 0.526588 0.438599 0.0335
776 C 0.544312 0.469299 0.0335
777 C 0.597488 0.438599 0.0335
778 C 0.579763 0.469299 0.0335
807 C 0.420238 0.5 0.0335
808 C 0.437963 0.530701 0.0335
809 C 0.491138 0.5 0.0335
810 C 0.473413 0.530701 0.0335
811 C 0.526588 0.5 0.0335
812 C 0.544312 0.530701 0.0335
813 C 0.597488 0.5 0.0335
814 C 0.579763 0.530701 0.0335
843 C 0.420238 0.561401 0.0335
844 C 0.437963 0.592102 0.0335
845 C 0.491138 0.561401 0.0335
846 C 0.473413 0.592102 0.0335
847 C 0.526588 0.561401 0.0335
848 C 0.544312 0.592102 0.0335
849 C 0.597488 0.561401 0.0335
850 C 0.579763 0.592102 0.0335
1311 C 0.402513 0.407898 0.067
1312 C 0.420238 0.438599 0.067
1313 C 0.473413 0.407898 0.067
1314 C 0.455687 0.438599 0.067
1315 C 0.508863 0.407898 0.067
1316 C 0.526588 0.438599 0.067
1317 C 0.579763 0.407898 0.067
1318 C 0.562038 0.438599 0.067
1347 C 0.402513 0.469299 0.067
1348 C 0.420238 0.5 0.067
1349 C 0.473413 0.469299 0.067
1350 C 0.455687 0.5 0.067
1351 C 0.508863 0.469299 0.067
1352 C 0.526588 0.5 0.067
1353 C 0.579763 0.469299 0.067
1354 C 0.562038 0.5 0.067
1383 C 0.402513 0.530701 0.067
1384 C 0.420238 0.561401 0.067
1385 C 0.473413 0.530701 0.067
1386 C 0.455687 0.561401 0.067
1387 C 0.508863 0.530701 0.067
1388 C 0.526588 0.561401 0.067
1389 C 0.579763 0.530701 0.067
1390 C 0.562038 0.561401 0.067
1419 C 0.402513 0.592102 0.067
1421 C 0.473413 0.592102 0.067
1423 C 0.508863 0.592102 0.067
1425 C 0.579763 0.592102 0.067
239 C 0.615213 0.407898 0
240 C 0.632937 0.438599 0
241 C 0.686113 0.407898 0
242 C 0.668388 0.438599 0
243 C 0.721562 0.407898 0
244 C 0.739287 0.438599 0
245 C 0.792463 0.407898 0
246 C 0.774738 0.438599 0
275 C 0.615213 0.469299 0
276 C 0.632937 0.5 0
277 C 0.686113 0.469299 0
278 C 0.668388 0.5 0
279 C 0.721562 0.469299 0
280 C 0.739287 0.5 0
281 C 0.792463 0.469299 0
282 C 0.774738 0.5 0
311 C 0.615213 0.530701 0
312 C 0.632937 0.561401 0
313 C 0.686113 0.530701 0
314 C 0.668388 0.561401 0
315 C 0.721562 0.530701 0
316 C 0.739287 0.561401 0
317 C 0.792463 0.530701 0
318 C 0.774738 0.561401 0
347 C 0.615213 0.592102 0
349 C 0.686113 0.592102 0
351 C 0.721562 0.592102 0
353 C 0.792463 0.592102 0
744 C 0.650663 0.407898 0.0335
746 C 0.686113 0.407898 0.0335
748 C 0.757013 0.407898 0.0335
750 C 0.792463 0.407898 0.0335
779 C 0.632937 0.438599 0.0335
780 C 0.650663 0.469299 0.0335
781 C 0.703838 0.438599 0.0335
782 C 0.686113 0.469299 0.0335
783 C 0.739287 0.438599 0.0335
784 C 0.757013 0.469299 0.0335
786 C 0.792463 0.469299 0.0335
815 C 0.632937 0.5 0.0335
816 C 0.650663 0.530701 0.0335
817 C 0.703838 0.5 0.0335
818 C 0.686113 0.530701 0.0335
819 C 0.739287 0.5 0.0335
820 C 0.757013 0.530701 0.0335
822 C 0.792463 0.530701 0.0335
851 C 0.632937 0.561401 0.0335
852 C 0.650663 0.592102 0.0335
853 C 0.703838 0.561401 0.0335
854 C 0.686113 0.592102 0.0335
855 C 0.739287 0.561401 0.0335
856 C 0.757013 0.592102 0.0335
858 C 0.792463 0.592102 0.0335
1319 C 0.615213 0.407898 0.067
1320 C 0.632937 0.438599 0.067
1321 C 0.686113 0.407898 0.067
1322 C 0.668388 0.438599 0.067
1323 C 0.721562 0.407898 0.067
1324 C 0.739287 0.438599 0.067
1325 C 0.792463 0.407898 0.067
1326 C 0.774738 0.438599 0.067
1355 C 0.615213 0.469299 0.067
1356 C 0.632937 0.5 0.067
1357 C 0.686113 0.469299 0.067
1358 C 0.668388 0.5 0.067
1359 C 0.721562 0.469299 0.067
1360 C 0.739287 0.5 0.067
1361 C 0.792463 0.469299 0.067
1362 C 0.774738 0.5 0.067
1391 C 0.615213 0.530701 0.067
1392 C 0.632937 0.561401 0.067
1393 C 0.686113 0.530701 0.067
1394 C 0.668388 0.561401 0.067
1395 C 0.721562 0.530701 0.067
1396 C 0.739287 0.561401 0.067
1397 C 0.792463 0.530701 0.067
1398 C 0.774738 0.561401 0.067
1427 C 0.615213 0.592102 0.067
1429 C 0.686113 0.592102 0.067
1431 C 0.721562 0.592102 0.067
1433 C 0.792463 0.592102 0.067
247 C 0.827912 0.407898 0
248 C 0.845638 0.438599 0
249 C 0.898813 0.407898 0
250 C 0.881088 0.438599 0
251 C 0.934263 0.407898 0
252 C 0.951987 0.438599 0
283 C 0.827912 0.469299 0
284 C 0.845638 0.5 0
285 C 0.898813 0.469299 0
286 C 0.881088 0.5 0
287 C 0.934263 0.469299 0
288 C 0.951987 0.5 0
319 C 0.827912 0.530701 0
320 C 0.845638 0.561401 0
321 C 0.898813 0.530701 0
322 C 0.881088 0.561401 0
323 C 0.934263 0.530701 0
324 C 0.951987 0.561401 0
355 C 0.827912 0.592102 0
357 C 0.898813 0.592102 0
359 C 0.934263 0.592102 0
752 C 0.863362 0.407898 0.0335
754 C 0.898813 0.407898 0.0335
756 C 0.969712 0.407898 0.0335
785 C 0.810188 0.438599 0.0335
787 C 0.845638 0.438599 0.0335
788 C 0.863362 0.469299 0.0335
789 C 0.916538 0.438599 0.0335
790 C 0.898813 0.469299 0.0335
791 C 0.951987 0.438599 0.0335
792 C 0.969712 0.469299 0.0335
821 C 0.810188 0.5 0.0335
823 C 0.845638 0.5 0.0335
824 C 0.863362 0.530701 0.0335
825 C 0.916538 0.5 0.0335
826 C 0.898813 0.530701 0.0335
827 C 0.951987 0.5 0.0335
828 C 0.969712 0.530701 0.0335
857 C 0.810188 0.561401 0.0335
859 C 0.845638 0.561401 0.0335
860 C 0.863362 0.592102 0.0335
861 C 0.916538 0.561401 0.0335
862 C 0.898813 0.592102 0.0335
863 C 0.951987 0.561401 0.0335
864 C 0.969712 0.592102 0.0335
1327 C 0.827912 0.407898 0.067
1328 C 0.845638 0.438599 0.067
1329 C 0.898813 0.407898 0.067
1330 C 0.881088 0.438599 0.067
1331 C 0.934263 0.407898 0.067
1332 C 0.951987 0.438599 0.067
1363 C 0.827912 0.469299 0.067
1364 C 0.845638 0.5 0.067
1365 C 0.898813 0.469299 0.067
1366 C 0.881088 0.5 0.067
1367 C 0.934263 0.469299 0.067
1368 C 0.951987 0.5 0.067
1399 C 0.827912 0.530701 0.067
1400 C 0.845638 0.561401 0.067
1401 C 0.898813 0.530701 0.067
1402 C 0.881088 0.561401 0.067
1403 C 0.934263 0.530701 0.067
1404 C 0.951987 0.561401 0.067
1435 C 0.827912 0.592102 0.067
1437 C 0.898813 0.592102 0.067
1439 C 0.934263 0.592102 0.067
326 C 0.0302875 0.622802 0
328 C 0.101187 0.622802 0
330 C 0.136638 0.622802 0
361 C 0.0480125 0.653503 0
362 C 0.0302875 0.684204 0
363 C 0.0834625 0.653503 0
364 C 0.101187 0.684204 0
365 C 0.154363 0.653503 0
366 C 0.136638 0.684204 0
367 C 0.189812 0.653503 0
397 C 0.0480125 0.714904 0
398 C 0.0302875 0.745605 0
399 C 0.0834625 0.714904 0
400 C 0.101187 0.745605 0
401 C 0.154363 0.714904 0
402 C 0.136638 0.745605 0
403 C 0.189812 0.714904 0